# vtk DataFile Version 1.0
Net Charge Density
ASCII
DATASET STRUCTURED_POINTS
DIMENSIONS 256 128 1
ORIGIN 0 0 0
SPACING 0.15625 0.15625 1
POINT_DATA 32768
SCALARS rhonet float
LOOKUP_TABLE default
-3.89549e-06
-9.5128e-05
0.000144792
9.63216e-05
3.56844e-05
0.00012045
-0.000118445
9.18582e-05
0.000154217
2.28997e-05
-3.75602e-05
0.000108725
0.000103821
7.94452e-05
0.000109346
4.9961e-05
8.77435e-05
0.000140235
4.0588e-05
-6.79102e-05
-6.4068e-06
0.00014186
0.000144767
4.7782e-05
3.72672e-05
2.07429e-05
7.74217e-05
9.05882e-05
-1.35214e-05
-7.27426e-05
5.23026e-05
3.97236e-05
4.36682e-05
6.90086e-05
1.24414e-05
0.000171713
1.68073e-05
7.28721e-05
7.73582e-05
-5.53194e-06
2.29318e-05
6.8316e-06
0.000136403
9.3981e-05
2.09378e-05
1.86827e-05
-3.16132e-05
6.95548e-05
0.000116214
7.88716e-05
-1.20078e-05
2.49785e-05
8.34423e-05
0.000148995
3.55951e-05
1.75042e-05
0.000151011
-5.17467e-05
5.67851e-06
7.16953e-05
5.02798e-05
6.0602e-05
7.16734e-06
8.018e-05
8.22486e-05
-8.03831e-05
4.41826e-05
0.000136175
4.09959e-05
4.8284e-05
7.92338e-05
3.67115e-05
-2.69158e-05
4.96677e-05
-1.14553e-07
5.11555e-05
4.20862e-05
-3.83077e-05
9.21623e-05
0.000106615
8.7184e-05
2.54082e-05
7.49622e-05
0.000101106
4.54687e-05
-4.47989e-06
-1.6691e-05
6.7048e-05
0.000119669
-2.34873e-05
9.00022e-05
-1.47953e-05
-3.90534e-05
-6.21425e-06
-8.99173e-05
5.22709e-05
0.000157961
2.4097e-05
9.16887e-05
-2.49443e-05
0.000157724
9.09183e-05
-3.16952e-06
9.47255e-05
3.90384e-05
0.000130971
-2.58791e-07
-6.85495e-05
2.663e-06
7.39997e-05
0.00013342
5.79277e-05
2.02988e-05
3.31156e-05
8.04204e-05
4.36596e-05
1.22661e-05
7.49694e-05
5.09606e-05
4.32279e-05
-3.98806e-05
-3.45634e-05
4.04443e-05
2.44896e-05
0.000115721
6.60876e-05
1.82543e-05
8.13095e-05
1.99644e-05
-1.88099e-05
0.000119797
9.26163e-05
-2.24472e-06
3.77481e-05
2.03245e-05
6.79702e-06
4.46101e-05
-3.19157e-05
4.68966e-05
-1.15021e-05
-4.98409e-05
2.32952e-05
2.09631e-05
0.000160761
9.88231e-05
2.06358e-06
0.000137836
1.15237e-05
-3.11243e-05
0.000132418
1.78269e-05
2.91321e-05
0.000108428
-8.34547e-06
3.45049e-05
4.32304e-05
5.74638e-06
3.42713e-05
-5.27664e-06
1.75429e-05
7.67785e-05
2.50087e-05
0.000112709
-2.20697e-05
3.25851e-05
2.55232e-05
5.84617e-05
-6.12729e-05
0.000105448
0.000137295
2.50292e-05
4.32236e-05
7.45823e-05
0.000111579
-2.0268e-05
-8.13347e-06
8.72927e-05
-8.23222e-05
1.15582e-05
3.31809e-05
8.87692e-05
-7.05997e-05
-3.18107e-05
5.65348e-06
1.04983e-05
7.9853e-05
4.14195e-05
7.20923e-05
0.000102554
7.46857e-05
2.48839e-05
0.000198126
8.16124e-05
-6.56989e-05
6.24203e-05
0.000201229
4.75228e-05
8.32753e-05
7.86678e-05
-1.63086e-05
5.95991e-05
0.00014917
4.39015e-05
3.83351e-05
-1.00755e-05
6.97713e-05
-5.98882e-05
5.34232e-05
6.86806e-05
8.57904e-05
6.81023e-05
0.000137439
0.000106096
-2.40523e-05
0.000111081
-0.00013128
0.000102691
9.90937e-05
-5.28723e-05
-3.79214e-05
8.69746e-05
0.000114877
0.000176992
3.40522e-05
7.95301e-05
5.67446e-05
-3.69134e-05
-1.51406e-05
8.6904e-05
6.86063e-05
6.22822e-06
4.16544e-05
2.36372e-05
2.60698e-05
0.000121307
-3.557e-05
-2.05769e-05
2.75009e-05
5.94519e-05
8.98016e-06
1.84992e-05
8.6694e-05
-5.8267e-05
-3.07104e-07
2.65894e-05
-1.44093e-05
-2.21959e-05
-3.95463e-05
0.000128655
-4.29654e-06
2.10481e-05
-3.85132e-05
0.000102293
2.14374e-05
2.40529e-05
4.18614e-05
-0.0001049
2.47052e-05
-6.30284e-05
-2.51199e-05
-2.38864e-05
5.12258e-05
-2.60441e-05
-7.57641e-05
4.98935e-05
-6.60464e-05
-4.28999e-05
2.3341e-05
-5.99087e-05
-8.02721e-05
3.00212e-06
-4.24259e-05
4.6622e-06
1.08912e-05
-2.15748e-05
-4.06022e-06
-5.82072e-05
-6.74947e-05
-0.000106139
-1.792e-05
-2.00452e-05
-5.72717e-05
-2.52761e-05
7.73114e-06
-3.07411e-05
-8.53869e-05
-3.53882e-05
-8.36106e-06
2.74424e-05
-7.95688e-05
-6.67482e-05
2.31337e-05
-0.000103178
-3.37886e-05
1.98344e-05
-8.20325e-05
-5.15862e-05
-4.38417e-05
8.67236e-06
3.55998e-05
-2.47126e-05
4.87408e-06
-0.000112384
-3.15168e-05
3.888e-05
-3.39407e-05
-6.56135e-05
-4.11932e-05
-3.17374e-05
2.98242e-05
-2.85316e-05
-3.54567e-05
-2.34867e-05
-0.00011611
1.48102e-05
-3.3793e-05
4.56303e-05
-5.12691e-05
-5.7286e-05
-3.73457e-05
-3.01475e-05
-6.05662e-05
-1.0028e-05
-7.96343e-05
-0.000109191
1.21041e-05
-4.39816e-05
9.01707e-06
-1.8436e-05
1.72417e-05
-5.13532e-05
-1.04342e-05
4.76097e-05
-2.54936e-05
5.74085e-05
2.163e-07
-3.24118e-05
-5.04451e-05
-8.22551e-05
2.84821e-05
2.44668e-05
-6.16951e-05
-0.000158638
-4.16985e-05
-6.57747e-08
-1.69135e-05
8.77352e-06
5.33116e-05
3.15637e-06
-1.07947e-05
2.4715e-05
-5.96547e-06
3.43234e-05
-2.73122e-05
-6.84697e-06
-1.89524e-06
-4.36435e-05
-0.000106618
-3.9652e-05
-2.96774e-05
-3.55599e-05
1.64213e-05
-5.91252e-05
-4.27184e-05
-1.06567e-06
-5.99981e-06
5.4352e-05
-3.54231e-05
-7.13798e-05
-7.13187e-05
4.01693e-05
1.15472e-05
-5.23517e-05
-1.1154e-05
9.64571e-06
3.18985e-05
-8.57754e-05
1.39618e-05
-6.1379e-05
-7.74139e-06
-3.48641e-05
-1.67092e-05
-4.55668e-05
-6.96029e-05
1.70252e-05
-4.8811e-05
-2.07976e-05
1.59814e-05
-1.05537e-05
-2.35448e-05
-1.24415e-05
-3.31041e-05
-4.6012e-05
-1.33585e-05
-4.22453e-05
-8.32253e-06
-5.94479e-05
-7.82586e-05
8.69809e-06
-2.01934e-06
-8.38259e-05
1.0549e-05
-3.22365e-05
-4.36761e-05
-0.00011768
-8.7251e-06
-3.99578e-05
-3.83075e-05
-7.16748e-05
9.36945e-06
3.00051e-05
-1.70404e-05
-2.39988e-05
-1.85636e-06
-5.11224e-05
-2.02564e-05
-8.13475e-05
-6.4095e-05
3.62433e-05
-8.02714e-05
-7.56339e-06
2.3746e-05
2.2117e-05
-5.27812e-05
-2.42458e-06
3.60706e-05
-9.46561e-05
1.02379e-05
-2.21473e-05
3.97034e-05
-4.13514e-05
-2.55487e-05
-5.70063e-06
3.04056e-05
-6.90706e-05
-4.7768e-05
3.67505e-05
-4.79678e-06
2.05939e-06
-4.86562e-05
-0.000107548
-6.60241e-05
-2.66011e-05
-2.248e-05
-9.32987e-06
-1.8858e-05
-0.00010145
6.32287e-06
3.69593e-05
4.6104e-06
-1.08492e-05
-2.36548e-05
-8.50833e-05
-3.90906e-05
4.81101e-05
-6.97735e-06
-7.5189e-05
-6.46276e-05
-4.37889e-05
3.0756e-05
-5.53508e-05
1.83075e-06
-5.12169e-05
9.71672e-05
1.17969e-05
-4.14064e-05
-5.22406e-05
-4.83999e-05
-4.73994e-05
3.21245e-05
-3.50827e-05
-7.29864e-05
1.69675e-06
-2.53887e-05
-1.98885e-05
4.50574e-06
-1.73212e-05
7.05677e-05
5.70887e-05
-6.70657e-05
-3.48976e-05
-2.73392e-05
-7.02045e-05
-2.0606e-05
2.42678e-05
8.58862e-05
-8.70336e-05
6.9344e-06
-4.34541e-05
-3.627e-05
6.90334e-05
3.75882e-05
-6.27585e-05
-4.99201e-06
2.55418e-05
-5.11216e-05
2.26243e-05
-1.34823e-05
-4.80213e-05
-1.98229e-05
3.05544e-06
3.73245e-05
3.4268e-05
-1.23486e-05
-2.31676e-05
-0.000132198
-1.66823e-07
-7.60576e-06
5.12586e-05
-7.35326e-06
-7.36318e-05
5.01634e-06
-3.30424e-05
-1.99105e-06
5.00251e-05
-7.79692e-06
-2.33897e-05
-8.47992e-06
1.05391e-06
-1.92305e-05
7.13239e-05
-5.15233e-05
7.82253e-06
3.11631e-05
6.53443e-05
-4.67899e-05
-2.90641e-05
-1.14907e-05
-2.49573e-05
-9.34287e-05
-2.04818e-05
3.51588e-05
4.88625e-05
3.64082e-05
-1.64525e-05
3.77694e-05
6.14579e-05
-4.75248e-05
4.4845e-05
4.40085e-05
9.82254e-06
-5.10867e-05
1.2307e-05
2.34435e-05
7.04299e-05
4.96684e-05
-3.57151e-05
2.25289e-05
5.27385e-06
-2.5116e-05
4.80082e-05
3.40395e-05
2.11631e-05
-2.89198e-05
-7.34262e-05
2.16747e-05
3.4873e-05
1.42085e-06
-4.63352e-05
1.81748e-06
-1.65706e-05
5.22441e-05
1.92709e-05
-4.25102e-05
-9.05942e-05
6.88457e-06
2.94284e-05
9.43255e-06
3.90769e-05
-4.01764e-05
2.79776e-05
-3.30699e-05
9.02762e-05
1.87063e-05
2.19363e-05
-2.38946e-05
3.89219e-05
7.95065e-05
-1.42981e-06
-1.07867e-05
-4.31227e-05
-5.63418e-05
3.6556e-05
5.69166e-06
-2.97659e-05
3.18508e-05
-3.75104e-05
-1.97687e-05
6.36959e-05
5.06418e-05
-4.80583e-05
-4.18767e-05
-9.31299e-06
-2.63553e-05
-1.33661e-05
5.0945e-05
7.4107e-05
-1.38802e-05
-5.52133e-05
-6.02386e-05
2.25473e-05
4.01646e-05
-3.5647e-05
4.6086e-05
6.04027e-05
1.00415e-05
-2.72854e-05
-6.84022e-05
1.03849e-05
-3.90668e-05
-6.67318e-05
1.89326e-05
-3.86651e-05
-7.26087e-05
1.55336e-05
3.44655e-05
-9.18168e-06
-2.52384e-05
3.49992e-05
6.71946e-05
-7.81449e-06
-2.34849e-05
1.90868e-05
-3.45564e-05
-3.24682e-06
3.17625e-05
-4.33616e-05
-4.44568e-05
-1.29159e-05
6.19069e-05
-1.54722e-05
-1.92429e-05
-9.34233e-07
1.07805e-05
-2.67855e-05
6.4329e-05
6.28061e-07
3.16112e-05
-3.45439e-05
-2.02112e-05
3.29809e-05
-8.9301e-06
-5.33782e-05
-6.58381e-05
-1.97742e-05
2.3836e-06
3.65478e-05
8.36782e-06
-1.87824e-06
1.48286e-05
-2.75732e-05
4.24775e-05
2.79532e-05
9.6911e-05
6.65829e-05
1.94262e-05
1.45669e-05
-1.36644e-05
5.90177e-05
5.77695e-05
-3.53304e-05
8.65557e-05
-1.88479e-05
-2.10215e-05
-5.39363e-05
1.12334e-05
-1.22988e-05
7.03168e-05
-1.07869e-05
6.14929e-06
5.77937e-05
3.47513e-05
-3.56392e-05
-5.85685e-06
4.3827e-05
2.99952e-05
1.48879e-05
3.09409e-06
-6.29965e-05
1.44141e-05
-9.3447e-05
4.1088e-05
-3.34159e-05
-7.29725e-05
6.78608e-06
-4.31377e-05
3.2607e-05
-5.40691e-05
-3.51893e-05
-7.38061e-06
-3.46787e-05
7.78167e-06
5.28594e-05
1.66985e-05
-1.61526e-06
7.61886e-05
-2.89571e-06
5.27895e-05
3.30991e-05
2.69056e-05
3.20111e-05
-4.14007e-05
-7.91219e-05
6.70331e-06
-3.71059e-05
3.3807e-07
3.12873e-05
2.55896e-05
4.62434e-05
-7.34476e-06
3.8557e-05
-1.82485e-05
8.60407e-05
-3.51762e-05
-2.42097e-05
-2.4478e-05
3.96874e-05
3.96367e-05
-5.5955e-06
-1.59822e-05
5.26488e-05
-3.12831e-05
-9.51253e-06
1.32093e-05
3.03076e-05
4.01438e-05
-6.21299e-05
6.55744e-06
-4.02802e-05
7.68161e-05
-2.30572e-05
2.42796e-06
-2.36233e-05
-7.65733e-06
1.056e-06
-7.58456e-05
1.8905e-05
4.24931e-05
2.73285e-06
-4.6881e-05
-0.000111356
2.32973e-05
1.92823e-05
1.66951e-06
4.11421e-05
-1.26261e-05
3.11458e-06
-2.15396e-05
-7.41901e-05
3.57796e-05
1.81659e-05
-4.43213e-05
1.38065e-05
2.49422e-05
-1.40069e-05
-5.45264e-05
-1.59673e-05
4.84829e-05
-4.49922e-06
-0.000139602
5.7974e-05
3.08059e-05
0.0001009
-3.72755e-05
3.82715e-05
1.9673e-05
-2.19462e-05
-3.16999e-05
-3.15026e-05
5.7979e-05
8.84749e-05
-9.06794e-06
-5.99888e-05
9.21858e-06
8.46456e-06
-1.7928e-08
-2.07848e-05
-3.90377e-05
0.000130274
-3.43217e-05
-4.70513e-05
5.37109e-05
-2.79699e-06
2.82226e-06
-3.7919e-05
-6.05407e-05
4.75425e-05
4.84356e-05
-1.7538e-05
3.74631e-05
-5.19098e-05
4.18173e-05
3.39501e-05
-6.99727e-05
2.7366e-05
3.88062e-05
1.67805e-05
-5.26782e-05
6.28685e-05
-2.19621e-05
-4.31021e-05
-7.40343e-06
-2.66789e-05
4.25472e-05
3.64985e-06
2.75733e-05
-4.73878e-05
-6.43707e-06
3.03099e-05
-2.26295e-05
-8.19345e-05
-4.95821e-05
1.36236e-05
3.36369e-05
4.53524e-05
-3.78172e-05
6.72049e-05
-2.02057e-05
-6.23036e-05
4.74688e-05
4.62758e-05
1.24044e-05
3.82883e-05
2.15032e-05
5.87152e-05
-6.50003e-05
-4.25668e-05
-1.3412e-05
4.39057e-05
4.78693e-05
-2.23205e-05
-6.05178e-05
1.9829e-06
-2.43762e-06
-3.00119e-05
1.48918e-05
2.92036e-05
7.28871e-05
7.06633e-05
-3.5825e-05
-0.000140628
2.58468e-05
1.20269e-06
-2.88255e-05
-4.69699e-05
5.72433e-05
3.12586e-05
1.75572e-05
-0.000107817
-1.58475e-05
1.13326e-05
3.99527e-05
3.2814e-05
-4.30106e-05
3.20361e-05
3.74882e-05
-3.91938e-05
2.83307e-05
3.71938e-05
-1.37138e-05
3.56362e-05
-5.44165e-05
8.30453e-05
3.03237e-05
-1.94274e-05
-2.67295e-05
6.84282e-05
4.12186e-05
-2.91602e-05
3.35341e-05
3.9215e-05
3.68366e-05
-3.48373e-05
-2.81519e-05
1.41676e-05
3.52946e-05
-7.15663e-05
-2.1616e-05
4.60047e-05
3.64983e-05
2.31862e-05
-3.12363e-05
-7.13491e-05
2.25485e-05
-3.52726e-05
7.6985e-05
-4.16434e-05
-1.3786e-05
7.45143e-05
-5.40669e-05
4.00317e-06
-1.77844e-05
-5.58051e-05
2.0123e-05
5.96035e-06
5.05825e-05
6.31155e-05
-6.58256e-05
8.14184e-05
-4.32233e-05
-2.44332e-05
2.67203e-05
4.39456e-06
9.56736e-06
7.65524e-06
4.39002e-06
-4.2216e-05
2.1703e-05
1.01282e-05
-1.56348e-05
-7.88148e-05
-2.7972e-05
-7.33137e-06
2.62832e-05
6.22834e-06
2.38403e-05
-8.0415e-06
5.26166e-05
3.00959e-05
-3.07955e-05
-8.68583e-05
1.14748e-05
3.87335e-05
1.1161e-05
-2.85618e-05
-9.1251e-06
-2.48104e-06
2.21187e-05
-3.22959e-06
2.53443e-05
2.2547e-05
3.20966e-05
-2.08732e-05
-3.06254e-06
6.05593e-06
-3.41353e-06
3.49667e-05
-2.4487e-05
5.34737e-05
1.96624e-05
1.27883e-05
-1.15682e-05
2.92521e-05
2.87127e-06
3.3959e-05
-1.87161e-05
-2.88582e-06
-6.90415e-05
2.46696e-05
-5.03857e-06
-1.26836e-05
2.05983e-05
-2.63392e-05
-2.66125e-06
-3.02469e-05
-7.38935e-05
-1.16549e-05
0.000124286
-9.67178e-05
2.30558e-05
4.08887e-05
1.12085e-05
1.89696e-05
2.29749e-05
-6.50398e-05
-1.85563e-05
-3.58935e-05
9.88808e-06
-2.25081e-05
-0.00011462
5.06433e-05
-0.000120174
-5.21543e-05
0.000129995
-2.8555e-05
-3.29321e-05
1.39815e-05
-3.08792e-06
-4.58455e-06
-6.87173e-05
5.01168e-07
2.54055e-05
-3.06815e-05
-4.83706e-05
-2.09836e-05
3.77465e-05
3.99076e-05
1.09903e-05
-3.37756e-05
2.43069e-05
4.91922e-05
4.5862e-05
-7.13912e-05
-6.57416e-05
-4.48679e-05
5.14662e-05
2.45101e-06
-1.54669e-06
-6.96699e-05
3.42145e-07
-1.04237e-05
6.8947e-06
-2.2904e-05
-2.35613e-06
-3.06217e-05
3.27413e-05
-3.2268e-06
-1.03364e-05
-2.52561e-05
2.84626e-05
9.52231e-05
-3.02624e-05
3.21715e-05
4.43808e-05
-4.54088e-05
-0.000101101
-3.30771e-05
0.00011101
6.25441e-05
-5.28281e-05
-0.000107186
-1.18127e-05
6.85668e-05
3.46119e-05
-5.40464e-05
-5.21376e-05
4.75176e-05
-4.06369e-05
-0.000119435
6.12033e-05
-1.81559e-05
-3.11724e-05
0.000105494
-4.54735e-05
-9.29439e-05
-5.38459e-05
9.50485e-06
-5.54991e-05
1.67228e-05
4.28164e-06
-7.23697e-05
6.52496e-06
4.59248e-05
6.77712e-06
-2.06707e-06
5.32221e-05
2.83381e-05
-3.75977e-05
-4.85507e-05
0.000104193
-1.62809e-05
-5.72798e-06
-2.97003e-05
-2.67313e-06
-4.58127e-05
8.22777e-06
-1.31107e-05
-4.38886e-05
-3.36713e-05
-5.49543e-05
4.80595e-05
-3.43899e-05
5.50934e-05
-3.26778e-05
-2.49939e-05
-9.60939e-06
3.26962e-05
-4.34377e-05
8.21739e-05
3.9906e-06
1.01081e-05
-2.64164e-05
-1.68593e-06
5.18312e-05
-5.05237e-05
7.65348e-05
-2.69971e-05
-2.84474e-05
5.25336e-06
1.91294e-05
5.75266e-05
-1.55072e-05
1.41475e-05
1.548e-05
9.67545e-05
-2.60593e-05
2.79723e-06
-6.86486e-05
-4.36394e-06
5.35592e-06
-6.22938e-07
-1.12271e-05
2.76116e-05
-7.06448e-05
2.38861e-05
3.64631e-05
-5.86151e-06
-1.47326e-05
5.85363e-05
-1.46369e-06
5.05592e-07
-8.36398e-06
-6.6882e-05
-7.45896e-06
-5.66774e-05
5.49147e-05
-1.55679e-05
-6.51171e-05
1.93969e-05
-2.50086e-05
1.49555e-05
4.44492e-05
-8.87818e-06
-5.64913e-05
-7.07048e-05
-8.34162e-06
-2.96306e-05
-2.15345e-06
-1.83213e-05
-1.89303e-06
-0.000102777
8.74745e-06
3.24819e-05
3.0796e-05
-0.000103662
-3.61559e-05
2.02424e-05
8.39115e-05
4.75231e-06
-1.31457e-05
3.19707e-05
7.14906e-07
-3.71367e-05
-7.51378e-05
-6.92129e-05
-2.21259e-06
-7.09707e-05
1.36602e-06
-4.37526e-05
5.21005e-05
-3.20331e-05
-2.11229e-05
9.38249e-06
-1.06101e-06
4.85091e-06
-2.59298e-05
5.72985e-05
-2.03836e-05
4.02209e-05
1.71221e-05
-4.36114e-05
4.79131e-06
-4.09896e-05
-3.49013e-07
2.30938e-05
-3.31618e-05
1.34481e-05
1.2359e-05
-2.6104e-05
-4.63814e-05
1.17684e-05
-4.40204e-05
0.000100773
4.16168e-05
5.95759e-05
5.72728e-06
3.63553e-06
3.72174e-05
-2.83862e-05
-2.65322e-05
-3.87033e-05
-3.32446e-05
-2.94519e-06
-4.83461e-06
-7.42385e-05
-9.21185e-05
-4.12922e-05
9.3604e-05
1.79687e-05
2.46144e-05
5.07898e-05
-3.90913e-05
-4.86929e-05
-6.07773e-05
2.91879e-05
-7.01528e-05
2.39777e-05
5.70995e-05
1.4381e-05
-8.54456e-05
6.48925e-05
5.64032e-06
1.15013e-05
-0.000120717
5.33739e-05
7.3608e-05
5.39084e-06
1.38737e-05
1.18413e-05
-9.6513e-06
3.66947e-05
-3.03431e-05
4.71823e-05
6.17241e-05
-4.68094e-06
-4.0432e-05
-2.984e-05
4.83345e-06
-1.19221e-06
4.36946e-05
-1.84961e-06
-1.13777e-05
-1.70617e-05
7.82476e-05
-4.58397e-06
1.79143e-05
-3.62855e-05
-7.78635e-05
7.3835e-05
-9.19317e-05
-5.20726e-06
2.09293e-05
2.30654e-06
7.05895e-05
3.83811e-05
7.42171e-06
5.50146e-05
-1.01449e-05
4.60937e-05
-1.68381e-05
-5.88753e-05
-4.91894e-05
5.14219e-05
5.4589e-05
-1.98532e-05
5.81008e-05
3.02007e-05
1.38805e-05
2.24964e-05
6.25557e-05
6.90261e-06
-8.80086e-05
-1.34254e-05
-5.00772e-06
4.86998e-05
5.99249e-05
6.30922e-05
1.42702e-06
2.14429e-05
-2.66382e-05
-9.9045e-06
-6.22044e-05
-1.6029e-05
3.25951e-05
-3.85365e-05
-1.90422e-05
5.3154e-05
-2.28167e-05
1.54099e-05
-4.23556e-05
-5.64614e-07
-5.11486e-05
-1.0791e-05
-0.000114607
2.06343e-05
1.91696e-05
7.28539e-05
2.73276e-05
-4.94901e-05
5.05785e-05
5.27869e-05
6.41989e-05
-7.98993e-06
4.43971e-05
-4.86511e-05
-2.58863e-05
-3.12882e-05
9.76644e-05
-4.46024e-05
-4.87092e-05
2.70446e-05
-5.04588e-05
1.36548e-05
-9.0183e-05
-0.000131356
6.04797e-05
5.67489e-05
-1.70094e-05
2.47736e-05
-9.1081e-06
5.16698e-05
-8.06579e-05
3.82912e-05
3.78343e-05
1.5908e-05
-7.97561e-06
-6.6557e-06
3.57425e-05
3.13772e-05
-9.32628e-05
-4.72963e-05
-9.38069e-05
-4.97693e-05
6.84746e-05
-3.54392e-05
9.14466e-06
-3.66222e-05
3.87214e-05
1.69349e-05
4.4761e-05
-5.40493e-05
2.94944e-05
6.61316e-05
1.224e-05
-6.64287e-05
1.134e-06
1.48171e-05
-1.36946e-05
6.08951e-05
-9.08272e-07
7.89305e-05
9.09762e-06
5.26154e-05
-9.66368e-05
3.41129e-05
6.60634e-06
-1.27817e-05
-4.4346e-05
-2.06714e-05
3.15055e-06
-9.30275e-07
-6.30602e-05
-0.000100799
-4.15868e-05
-9.15077e-05
-4.81858e-05
5.62927e-05
-1.52463e-05
-5.22905e-05
-2.41207e-05
-1.08287e-05
-4.57689e-05
-4.23098e-05
1.19058e-05
2.83603e-05
-1.41372e-05
-5.28245e-05
-6.13477e-05
1.77325e-05
1.07328e-05
-2.08276e-05
5.963e-05
1.79117e-06
2.51196e-05
-2.36359e-05
5.88673e-05
3.18957e-05
4.76106e-05
-7.31893e-05
7.22465e-05
-0.000100923
-6.24114e-06
6.49315e-05
8.48912e-06
3.23073e-05
-3.30701e-06
-4.32201e-05
2.37813e-06
1.9997e-05
-1.27297e-05
9.59332e-06
3.61397e-05
2.75432e-05
6.92137e-05
-2.72412e-06
-6.32242e-05
-6.14603e-06
-7.61054e-06
-1.0211e-05
4.45026e-05
5.20144e-06
2.67313e-05
-6.62962e-06
-4.79841e-06
-2.948e-05
1.43551e-05
5.68863e-06
6.79197e-05
9.01229e-06
3.43914e-05
1.84249e-05
1.29037e-05
-4.46521e-05
3.45933e-05
3.36543e-05
1.93808e-06
-1.88088e-05
4.46874e-05
-5.23889e-05
6.75361e-05
7.74646e-05
6.37211e-06
8.1385e-05
-3.18107e-05
2.2067e-05
-1.73557e-05
-2.87797e-05
-6.86577e-05
1.19237e-05
2.47912e-05
1.23705e-05
-3.48684e-05
2.1678e-05
-2.20746e-05
-3.52529e-06
1.23349e-05
1.70944e-06
2.97129e-05
-6.88561e-05
-1.33737e-05
9.1896e-05
-3.4351e-05
1.47283e-05
-1.23637e-05
4.94565e-05
2.42066e-05
-4.44681e-05
5.05934e-05
0.000106778
9.66932e-05
6.52499e-05
8.90112e-07
-7.20657e-06
-1.14567e-05
6.66898e-05
-5.448e-06
4.01791e-05
-2.33966e-05
4.17562e-05
-3.41267e-05
-2.13981e-05
6.28107e-06
-2.62648e-05
3.58212e-05
-8.93143e-05
4.69473e-05
-3.57562e-05
3.30247e-05
2.34643e-05
-9.97108e-05
2.21339e-05
3.57014e-05
-1.87466e-05
2.13259e-05
-6.78233e-05
2.71617e-05
-5.16982e-05
5.68146e-05
4.88432e-05
-1.74809e-05
3.8041e-05
4.5417e-05
1.17867e-05
-8.37923e-06
2.075e-05
-2.05643e-05
5.28257e-05
-7.57057e-05
-4.2627e-05
-7.67258e-06
2.04972e-05
-1.5436e-05
-3.1233e-05
1.17394e-05
6.2165e-05
4.88078e-05
4.33589e-06
-0.00012757
-5.02242e-05
-6.86673e-05
-6.60992e-05
3.09134e-05
7.61505e-05
-7.01355e-05
-7.0302e-06
9.28587e-06
4.82396e-05
3.83984e-06
8.47294e-06
-6.75756e-05
-1.85834e-05
1.21734e-05
-8.66852e-06
-3.19532e-05
-1.42835e-05
3.18349e-06
7.33125e-06
1.82407e-05
2.56507e-05
-6.7884e-05
-4.71482e-06
3.4929e-05
-5.05329e-05
1.07943e-05
-1.50151e-05
-1.63049e-05
-2.95393e-05
9.53894e-05
2.63903e-05
-1.76694e-05
-2.15026e-05
-1.2798e-05
8.03312e-06
-1.35809e-05
2.63911e-05
-7.18527e-06
-1.90837e-05
2.17286e-05
5.39322e-05
-9.03441e-05
5.79043e-05
-1.4478e-05
-1.46059e-05
-3.83228e-05
-4.5439e-05
2.61622e-05
5.74819e-05
2.07161e-05
1.80576e-05
2.61946e-05
-7.22148e-06
-2.65964e-05
2.38703e-05
-3.81798e-05
-3.29983e-05
2.86612e-05
4.19607e-06
5.34139e-05
-1.2902e-05
-4.54637e-06
9.10496e-05
1.63328e-05
1.6914e-05
-4.63262e-05
3.55736e-05
-3.9171e-05
2.29455e-05
1.72222e-05
3.08629e-06
6.80592e-05
6.72812e-05
-1.70234e-05
-7.54744e-06
4.55864e-05
-1.23871e-05
-6.61239e-06
0.000122597
3.26283e-05
1.82125e-05
2.49491e-05
-5.22539e-05
-2.22402e-05
-5.70165e-05
1.30513e-06
7.69086e-06
2.41781e-05
1.0771e-05
-5.20688e-05
1.76704e-05
6.4493e-05
-6.11884e-05
5.44072e-05
-4.49321e-05
-7.05199e-05
6.23078e-06
3.27922e-05
4.70867e-05
1.32807e-06
1.32956e-05
-7.78607e-05
-2.81835e-05
-6.8926e-06
0.000112601
3.68485e-05
-3.34249e-05
4.85622e-05
3.18341e-05
1.14893e-05
6.94902e-05
0.000133271
-7.38598e-05
-4.20375e-05
-1.68965e-05
2.04104e-05
8.13324e-06
-1.95545e-05
3.47556e-05
5.05913e-05
-6.30402e-05
-4.22697e-05
1.79624e-05
5.7034e-05
-6.66361e-07
2.83981e-05
-3.47802e-05
-8.23162e-05
-3.16935e-05
-5.51022e-05
-1.69474e-05
6.43994e-05
-5.57774e-05
5.25209e-05
-0.00011234
-7.10648e-05
-1.52234e-05
-1.6027e-05
-3.593e-05
5.28328e-05
4.40277e-05
-4.75463e-06
-6.0578e-05
-2.03259e-05
1.72128e-05
2.40909e-05
-2.15006e-05
-3.80275e-05
1.84207e-05
-5.2297e-05
-1.48048e-05
-9.04266e-05
-1.86129e-05
-1.40991e-05
0.000121308
-2.54705e-05
5.25195e-05
3.79477e-05
3.11941e-05
-3.85304e-05
-5.10248e-06
-4.49655e-05
2.6294e-05
1.12427e-05
-1.86061e-05
1.74431e-05
-3.76209e-05
8.71066e-06
-3.17957e-05
7.14653e-05
-7.47017e-05
0.000101809
5.19648e-05
3.18051e-05
1.94159e-05
4.63659e-05
-3.00491e-06
1.62398e-05
7.99999e-05
3.67663e-06
-1.37987e-05
-5.21089e-05
-5.62187e-05
2.68214e-05
-3.78028e-05
-4.78229e-05
2.88631e-05
-2.6899e-05
-1.16543e-05
-5.02807e-05
3.10765e-05
-2.00602e-05
3.81096e-05
-8.71741e-05
-4.69054e-05
1.67198e-05
4.92433e-05
9.12813e-06
1.42632e-06
-6.69425e-05
-7.27309e-05
-1.43618e-05
-9.74431e-06
-1.5698e-05
2.67378e-05
-9.21229e-05
-5.88649e-05
-1.25882e-05
5.10606e-05
-8.97485e-05
7.86013e-05
1.30897e-05
1.51686e-05
-0.000114673
-4.19714e-05
1.0648e-05
8.84158e-05
-6.7536e-06
-6.92974e-06
1.0809e-05
-9.15196e-05
-1.49576e-05
1.07791e-05
5.18081e-05
-3.28282e-05
4.25945e-05
9.43081e-06
7.85338e-07
4.03607e-05
-3.83367e-06
2.6673e-05
-2.21878e-05
6.1118e-07
2.16358e-06
1.8309e-05
-2.01628e-05
-7.52347e-05
-8.20149e-05
-4.08828e-05
3.06893e-05
3.11444e-05
-1.7604e-05
-1.14897e-05
3.87505e-05
9.27411e-06
1.17528e-05
-4.4487e-05
-5.27478e-05
-4.26525e-05
9.60722e-05
-3.91055e-05
-6.17554e-05
-4.51256e-05
4.72006e-06
-4.15776e-05
-1.74739e-06
2.57664e-05
4.81141e-05
-3.50763e-05
2.8915e-05
3.42646e-05
2.19489e-05
-2.03146e-05
-2.843e-05
2.95844e-05
6.23253e-05
1.81488e-05
-1.77092e-05
-4.22893e-05
-3.5183e-06
6.32224e-05
3.54659e-06
7.63277e-06
-5.29492e-06
1.01695e-05
2.74981e-05
2.91361e-05
-2.60759e-05
-5.97404e-05
8.6787e-05
3.29317e-05
-1.45725e-05
-1.42362e-05
5.72903e-05
3.8424e-06
9.81886e-05
0.000121367
-2.85936e-05
2.49974e-05
7.87131e-06
-1.8671e-05
-1.70155e-05
-7.32371e-05
0.000112081
-1.25971e-05
-6.01782e-05
7.86223e-06
3.08839e-05
9.78354e-06
7.8415e-06
1.71368e-05
4.83124e-08
-2.6723e-05
-2.56813e-05
-4.13366e-05
-4.55836e-05
-1.76236e-05
-7.76583e-06
-4.82695e-05
7.13975e-05
1.64238e-05
3.01735e-05
-3.19605e-05
1.3985e-05
-1.39402e-05
-1.55889e-05
4.4771e-06
-1.65863e-05
8.27656e-05
5.56023e-05
5.67327e-06
3.54116e-05
2.86207e-06
-1.63057e-05
2.07496e-05
9.6322e-06
-1.45021e-05
-4.88877e-05
-4.07479e-05
-9.69181e-06
4.12583e-05
-2.15804e-05
-3.41531e-05
5.64973e-05
-1.37318e-05
-5.04197e-05
3.84739e-05
-2.33622e-05
-1.19675e-06
-5.94467e-05
5.95255e-06
6.40077e-05
-7.3972e-05
-2.23715e-05
-4.28827e-06
-7.4316e-05
-1.58094e-05
5.60065e-05
-2.41012e-05
5.20141e-05
4.58728e-05
-3.16432e-05
0.000122277
2.89965e-05
1.20702e-05
-2.74091e-05
-3.44687e-05
-3.20197e-05
5.98456e-05
4.27903e-05
-2.54277e-05
-1.62865e-05
4.25265e-05
4.55986e-05
-7.08051e-05
-4.53843e-05
-1.75913e-05
6.0014e-05
3.7081e-05
4.36974e-05
-7.64464e-06
2.17553e-05
1.48437e-05
1.47813e-05
3.49527e-05
1.44988e-05
-7.17352e-05
5.90797e-05
3.93526e-05
-1.62121e-05
4.74523e-05
-1.84558e-05
-3.84235e-05
8.46094e-05
5.78981e-05
5.29941e-05
-2.82942e-05
-1.40265e-05
-3.38175e-06
6.5687e-05
1.70162e-05
1.81663e-05
-1.45183e-05
-3.22156e-05
8.30146e-06
5.70645e-05
3.72083e-05
6.89619e-05
3.92868e-05
3.07865e-05
-1.59338e-05
4.175e-05
8.47294e-06
-3.21829e-05
-1.07553e-05
-1.45929e-05
5.39321e-05
1.21888e-05
2.11237e-05
-2.64748e-05
1.1299e-05
-2.39081e-05
-1.44511e-05
1.09981e-05
-7.73452e-06
4.69037e-06
1.68594e-05
6.67053e-05
1.57985e-05
-0.00010758
-8.24984e-05
6.5231e-06
-5.85075e-05
5.17319e-05
1.84863e-05
1.6677e-05
-7.07672e-05
5.68526e-06
-1.86231e-05
-4.33438e-05
5.83285e-05
-4.15359e-05
-7.76742e-05
-1.33208e-05
-3.7475e-05
-1.09943e-06
5.063e-05
3.43444e-05
5.21399e-05
2.95311e-05
4.71435e-05
-2.02371e-05
0.000134813
5.51662e-05
-3.8271e-05
-1.12217e-05
0.000111732
1.12853e-06
-1.38331e-05
-2.07323e-05
-1.05341e-05
5.75103e-06
2.51093e-05
-6.47183e-05
1.2219e-06
0.000118249
2.02316e-05
-6.96788e-05
-8.34573e-05
9.06892e-05
4.2954e-05
-6.09944e-05
-2.33646e-06
4.52437e-06
-2.48618e-05
-7.49838e-05
-6.30179e-06
3.398e-05
6.28862e-05
-2.65904e-06
-2.97542e-05
-6.67728e-05
-1.08309e-05
7.42334e-06
3.03179e-05
-1.26914e-05
1.26477e-05
-3.24744e-05
-1.54037e-05
4.65967e-05
-6.05942e-07
-7.33231e-05
-3.61174e-05
3.19344e-05
5.07119e-05
5.52044e-05
-3.86602e-05
-2.71022e-05
-1.73203e-06
4.00434e-05
-1.28823e-05
1.15235e-05
2.75385e-05
1.50998e-05
2.02365e-05
3.2782e-05
-0.000103584
-2.37207e-05
5.62991e-05
-3.5605e-05
-8.56415e-05
0.000101617
-2.90696e-05
2.15789e-05
-5.19502e-05
6.29295e-06
-5.95588e-05
3.80247e-06
-4.01158e-05
2.21786e-05
-9.73768e-06
6.35829e-05
-2.76121e-05
-2.54392e-05
9.06728e-05
-5.55885e-05
-3.5143e-05
1.47806e-05
-2.30945e-05
3.46848e-05
-4.1014e-05
-1.09319e-05
2.98403e-05
3.45648e-05
-4.78463e-05
-5.78752e-05
-3.72985e-05
3.5862e-05
-1.02365e-05
-1.76753e-05
3.83474e-05
4.55067e-06
-3.07268e-05
-6.31753e-05
6.19097e-06
-5.68883e-05
0.000120349
-0.000117729
-6.80867e-05
1.01867e-05
-1.02164e-05
2.82164e-05
-1.96018e-05
-6.25569e-06
3.50744e-05
9.93162e-06
-5.9648e-05
5.40572e-05
-2.97572e-05
-7.26315e-07
-9.39064e-06
-2.64805e-05
5.88999e-05
9.35845e-05
7.9501e-05
-1.68916e-05
-6.82927e-05
-7.77039e-05
4.75626e-05
-1.31736e-06
1.17444e-05
5.16307e-05
-6.31507e-05
2.21428e-05
3.45723e-05
-3.89628e-05
4.92724e-05
9.85339e-06
-2.73694e-05
-7.18007e-05
-2.20723e-06
9.41264e-06
5.68597e-05
-2.01393e-05
-8.62277e-06
7.09004e-06
9.574e-07
-2.91977e-05
-3.67723e-05
9.86736e-07
-7.08294e-06
-7.7707e-05
4.07125e-05
2.28037e-05
-2.33538e-05
-2.82727e-05
6.35663e-06
-3.1061e-05
-2.37784e-05
5.87661e-05
3.77755e-05
-8.88549e-05
1.88745e-05
2.82153e-05
2.42066e-05
-1.97266e-05
3.13721e-05
2.67723e-05
-2.7891e-05
-1.14406e-05
4.39801e-05
-1.84723e-05
6.28934e-06
-9.41637e-06
3.67078e-05
-1.6538e-05
-2.21911e-05
-3.26339e-05
2.11543e-05
-9.05291e-05
-2.25261e-05
7.17887e-06
-1.6781e-05
-5.12955e-05
-4.15257e-05
3.02573e-05
1.87581e-05
1.34521e-05
6.7997e-05
0.000103677
-2.68705e-05
-5.62214e-05
-7.36781e-06
-8.72905e-06
-8.2209e-06
-0.000119191
3.07665e-05
9.97083e-05
7.93557e-05
2.35235e-05
2.89548e-06
3.23553e-05
6.62007e-06
-1.27399e-05
-1.12366e-05
3.50224e-06
6.08945e-05
-6.73498e-06
5.99324e-05
-9.10833e-06
-4.93439e-05
-1.25011e-05
-1.79207e-05
3.41779e-05
-3.37973e-05
7.3954e-06
5.94542e-05
0.000102923
1.58966e-05
2.07406e-06
6.60844e-05
-5.49525e-05
-6.42205e-05
4.83694e-06
5.86052e-05
-3.53624e-05
-0.000113618
-3.21867e-05
8.25268e-06
3.03728e-05
4.09421e-06
1.25878e-05
-2.57912e-05
4.02995e-06
-1.99422e-05
-0.000115459
-8.30321e-06
2.34317e-05
1.67682e-05
-9.89914e-06
-1.77941e-05
3.4106e-05
5.38379e-05
-8.89879e-07
-3.26855e-05
-1.44828e-05
1.08387e-05
2.86297e-05
1.41959e-05
-1.13219e-05
4.36343e-05
-9.69996e-06
4.36606e-05
-6.26058e-06
-6.49591e-05
8.33401e-05
7.37351e-06
-2.33591e-05
-5.29964e-05
8.21997e-06
-7.67079e-05
-5.47341e-05
1.69986e-05
-2.35282e-05
6.93036e-05
-5.89249e-05
-1.58964e-05
-3.79607e-06
-4.3655e-05
1.74984e-06
6.90878e-06
-1.56339e-05
-1.26804e-05
-6.31309e-06
-2.87476e-05
6.35841e-05
-1.27363e-05
2.98874e-05
-1.94596e-05
0.00010666
-6.87318e-05
2.64286e-06
7.97829e-05
-7.28974e-05
-2.11628e-05
-1.82888e-06
-5.65511e-06
-3.07187e-05
-1.6659e-07
6.13104e-05
-4.53609e-05
-3.9367e-06
2.74235e-05
5.10013e-05
6.30133e-06
2.15239e-05
-5.93142e-05
-4.52382e-05
-4.56917e-05
-4.39736e-05
-2.38916e-05
-5.03435e-05
-2.24272e-05
-6.28915e-05
1.11957e-05
0.000117078
1.08845e-05
1.60304e-06
7.11647e-06
-1.24832e-05
-9.79594e-05
1.17281e-05
-2.43359e-05
-6.52871e-05
-4.57341e-05
9.77492e-05
-2.8451e-05
2.46855e-05
2.89711e-05
-3.39508e-05
9.19256e-05
-5.0638e-05
-3.1399e-05
4.17698e-07
2.26258e-05
5.23946e-05
-4.63518e-05
3.01935e-06
-7.25873e-05
3.62425e-05
4.53797e-05
5.10277e-05
4.96118e-05
1.14621e-05
6.31507e-06
1.38569e-05
1.41538e-06
1.35635e-05
-5.94306e-05
-5.26085e-05
-3.14445e-05
3.6899e-05
-1.13051e-06
4.3941e-06
1.6598e-05
1.01095e-05
-4.5674e-05
-5.67072e-05
-2.16053e-05
3.75358e-06
3.021e-05
2.47178e-05
-3.70552e-05
-4.68164e-05
-8.03268e-05
-3.89202e-05
8.46444e-05
4.35195e-05
1.98977e-05
-8.17562e-06
-6.95768e-06
-5.38765e-05
3.58438e-05
-6.18511e-05
7.9043e-05
-1.59473e-05
-3.99174e-05
-6.26175e-05
3.51224e-05
5.15343e-05
1.97079e-06
-3.47057e-06
-9.94978e-06
5.45722e-05
-4.3594e-05
-3.20023e-05
3.58508e-05
-2.337e-05
-7.1933e-06
3.16274e-05
-2.36783e-05
4.79083e-05
6.11587e-05
-1.5019e-05
5.83357e-05
-1.60108e-05
-5.55507e-05
-4.11178e-05
3.92949e-05
8.73664e-05
-9.01881e-06
2.39061e-05
5.31231e-05
-2.11713e-06
3.75926e-05
-6.11137e-05
-5.37827e-05
4.75649e-05
-2.9743e-05
-7.41602e-05
-1.30141e-05
3.82983e-06
-4.95902e-05
-1.00624e-05
1.48062e-05
3.36685e-06
-4.77557e-05
-3.26624e-05
4.77955e-06
4.40958e-05
4.04305e-05
-4.65778e-05
-4.65799e-05
9.95421e-06
6.5808e-05
1.7775e-05
-1.76023e-05
-0.000102062
4.74707e-05
-2.01669e-05
-7.77585e-06
-8.79902e-06
4.50334e-05
-5.59213e-06
-5.70059e-05
-1.9311e-05
-3.39668e-05
4.7591e-05
2.1651e-05
-2.22095e-05
-2.47783e-05
-2.54152e-05
-5.8905e-06
-1.15664e-05
-4.13181e-05
-4.02357e-05
1.20548e-06
-4.48257e-05
2.04253e-05
3.38093e-06
-2.82915e-05
3.01641e-05
9.34768e-06
-6.71301e-05
-4.05742e-05
7.09337e-05
-3.3955e-05
-2.67514e-05
2.17739e-05
1.56362e-05
1.44391e-05
-8.9017e-06
-1.19932e-05
1.44318e-05
8.70283e-05
-9.69623e-07
1.24229e-05
-5.59281e-05
-1.92781e-05
3.90811e-05
3.06976e-06
-4.05507e-05
7.56641e-06
6.7285e-05
3.9499e-05
-7.47541e-05
-3.48648e-05
2.4689e-05
-5.16148e-05
3.76697e-06
-4.08548e-05
-1.83189e-05
8.32826e-05
-3.53508e-05
-3.56355e-05
-9.10216e-06
-2.37034e-05
-7.61587e-05
-4.31734e-05
-3.44517e-05
3.03325e-05
-5.93213e-05
-4.43419e-05
-1.38483e-05
2.80142e-05
4.43452e-05
7.11251e-06
-4.17815e-07
-3.37955e-05
5.6317e-05
4.62119e-05
-7.51623e-05
0.000106831
-4.85462e-05
-1.38162e-05
-8.41101e-07
-1.47615e-05
-6.56999e-05
-1.55213e-05
-5.29015e-06