# vtk DataFile Version 1.0
Electron Density - Current Sheet 
ASCII
DATASET STRUCTURED_POINTS
DIMENSIONS 256 128 1
ORIGIN 0 0 0
SPACING 0.15625 0.15625 1
POINT_DATA 32768
SCALARS rhoe float
LOOKUP_TABLE default
-1.9636e-18
-1.86594e-18
-1.80023e-18
-1.8389e-18
-1.89583e-18
-1.85393e-18
-1.78404e-18
-1.87588e-18
-1.85377e-18
-1.91861e-18
-1.90174e-18
-1.83006e-18
-1.94282e-18
-2.04912e-18
-1.78047e-18
-1.74345e-18
-1.84295e-18
-1.79137e-18
-1.93347e-18
-1.96394e-18
-1.8752e-18
-1.75535e-18
-1.72975e-18
-1.98174e-18
-1.83135e-18
-1.78697e-18
-1.81745e-18
-2.01931e-18
-1.81606e-18
-1.8074e-18
-1.82849e-18
-1.91719e-18
-1.89559e-18
-1.89753e-18
-1.81386e-18
-1.96647e-18
-1.88883e-18
-1.89921e-18
-1.82455e-18
-1.84301e-18
-1.85537e-18
-1.85054e-18
-1.88583e-18
-1.9295e-18
-1.86726e-18
-1.87778e-18
-1.9157e-18
-1.73013e-18
-1.80574e-18
-1.85995e-18
-1.99491e-18
-1.88087e-18
-1.90599e-18
-1.81146e-18
-1.78091e-18
-1.71708e-18
-1.90108e-18
-1.92047e-18
-1.81828e-18
-1.85618e-18
-1.93287e-18
-1.826e-18
-1.91003e-18
-1.90325e-18
-1.81455e-18
-2.09427e-18
-1.89258e-18
-1.86789e-18
-1.86325e-18
-1.83601e-18
-1.74187e-18
-1.81535e-18
-1.81686e-18
-1.79943e-18
-1.90268e-18
-1.82545e-18
-1.85389e-18
-1.81374e-18
-1.81553e-18
-1.91269e-18
-1.94865e-18
-1.86197e-18
-1.79758e-18
-1.91005e-18
-1.9195e-18
-1.9367e-18
-1.8296e-18
-1.90004e-18
-1.82538e-18
-1.7907e-18
-1.89812e-18
-1.84261e-18
-1.82539e-18
-1.92238e-18
-1.85431e-18
-1.99985e-18
-1.86784e-18
-1.75112e-18
-1.86837e-18
-1.77468e-18
-1.80939e-18
-1.94059e-18
-1.8715e-18
-1.83335e-18
-1.85311e-18
-1.97594e-18
-1.86128e-18
-1.78056e-18
-1.93997e-18
-2.00519e-18
-1.75221e-18
-1.82517e-18
-1.76113e-18
-1.85509e-18
-1.83205e-18
-1.88982e-18
-1.88517e-18
-1.73538e-18
-1.79153e-18
-1.81014e-18
-1.81696e-18
-1.85702e-18
-1.88733e-18
-1.85542e-18
-1.93233e-18
-1.85076e-18
-1.87656e-18
-1.89183e-18
-1.80302e-18
-1.90578e-18
-1.78403e-18
-1.97069e-18
-1.89211e-18
-2.01354e-18
-1.82326e-18
-1.80715e-18
-1.85735e-18
-1.87618e-18
-1.71067e-18
-1.69565e-18
-1.77249e-18
-1.95568e-18
-1.89834e-18
-1.79931e-18
-1.80849e-18
-1.83754e-18
-1.86181e-18
-1.81495e-18
-1.93531e-18
-1.89308e-18
-1.85356e-18
-1.91066e-18
-1.88922e-18
-1.84343e-18
-1.86921e-18
-1.86291e-18
-1.87515e-18
-1.94364e-18
-1.8797e-18
-1.99082e-18
-1.84441e-18
-1.94541e-18
-1.77602e-18
-1.77427e-18
-1.81885e-18
-1.77859e-18
-1.8357e-18
-1.91952e-18
-1.79966e-18
-1.93972e-18
-1.9375e-18
-1.8254e-18
-1.84768e-18
-1.90698e-18
-1.87988e-18
-1.96372e-18
-1.84598e-18
-1.79169e-18
-1.88264e-18
-1.78749e-18
-1.85736e-18
-1.78526e-18
-1.8738e-18
-1.82851e-18
-1.84061e-18
-1.82106e-18
-1.90009e-18
-1.86534e-18
-1.88307e-18
-1.86274e-18
-1.74352e-18
-1.9013e-18
-1.79702e-18
-1.77951e-18
-1.9939e-18
-1.74939e-18
-1.91392e-18
-1.74793e-18
-1.81759e-18
-1.83385e-18
-1.78865e-18
-1.83816e-18
-1.94317e-18
-1.88218e-18
-1.74179e-18
-1.85191e-18
-1.92941e-18
-1.93504e-18
-1.77225e-18
-1.84309e-18
-2.05136e-18
-1.99176e-18
-1.7758e-18
-1.783e-18
-1.90239e-18
-1.93484e-18
-1.8154e-18
-1.86047e-18
-1.92151e-18
-1.73752e-18
-1.84886e-18
-1.76605e-18
-1.88373e-18
-1.91252e-18
-1.76139e-18
-1.76288e-18
-1.9425e-18
-1.96286e-18
-1.87873e-18
-1.81697e-18
-1.73657e-18
-1.7944e-18
-1.83218e-18
-1.83211e-18
-1.86075e-18
-1.77026e-18
-2.01489e-18
-1.91565e-18
-1.79368e-18
-1.85235e-18
-1.81912e-18
-1.8109e-18
-1.7604e-18
-1.92383e-18
-1.88905e-18
-1.87693e-18
-1.96053e-18
-1.83915e-18
-1.90283e-18
-1.8842e-18
-1.83859e-18
-1.90017e-18
-1.85073e-18
-1.91028e-18
-1.74904e-18
-1.78289e-18
-2.85737e-18
-2.81236e-18
-2.86879e-18
-2.72381e-18
-2.88432e-18
-2.79881e-18
-2.79665e-18
-2.90307e-18
-2.904e-18
-2.76132e-18
-2.77173e-18
-2.90076e-18
-2.84521e-18
-2.7204e-18
-2.72817e-18
-2.91427e-18
-2.87136e-18
-2.70584e-18
-2.81965e-18
-2.87929e-18
-2.88291e-18
-2.89765e-18
-2.81168e-18
-2.80904e-18
-2.74892e-18
-2.72615e-18
-2.73265e-18
-2.92804e-18
-2.71822e-18
-2.81495e-18
-2.85277e-18
-2.77417e-18
-2.71297e-18
-2.7893e-18
-2.88098e-18
-2.80401e-18
-2.91711e-18
-2.87525e-18
-2.84902e-18
-2.77688e-18
-2.86372e-18
-2.78604e-18
-2.79258e-18
-2.8734e-18
-2.78691e-18
-2.78614e-18
-2.9027e-18
-2.83645e-18
-2.67591e-18
-2.75699e-18
-2.74756e-18
-2.88867e-18
-2.84126e-18
-2.73192e-18
-2.79602e-18
-2.9337e-18
-2.8348e-18
-2.78223e-18
-2.92039e-18
-2.84627e-18
-2.73552e-18
-2.81461e-18
-2.87289e-18
-2.84951e-18
-2.80717e-18
-2.77614e-18
-2.78147e-18
-2.86837e-18
-2.7794e-18
-2.85199e-18
-2.88408e-18
-2.84977e-18
-2.75576e-18
-2.85215e-18
-2.91065e-18
-2.77351e-18
-2.81864e-18
-2.86642e-18
-2.92214e-18
-2.93885e-18
-2.77838e-18
-2.70746e-18
-2.78168e-18
-2.77076e-18
-2.89839e-18
-2.84864e-18
-2.66947e-18
-2.75951e-18
-2.82143e-18
-2.83683e-18
-2.69091e-18
-2.74128e-18
-2.77494e-18
-2.82162e-18
-2.88164e-18
-2.83072e-18
-2.93454e-18
-2.87886e-18
-2.92706e-18
-2.76537e-18
-2.77249e-18
-2.81204e-18
-2.83572e-18
-2.77588e-18
-2.80667e-18
-2.79799e-18
-2.70201e-18
-2.83905e-18
-2.75195e-18
-2.84971e-18
-2.66804e-18
-2.68172e-18
-2.85625e-18
-2.8334e-18
-2.7547e-18
-2.82943e-18
-2.87563e-18
-2.88023e-18
-2.81029e-18
-2.83016e-18
-2.82428e-18
-2.72387e-18
-2.76209e-18
-2.81801e-18
-2.83515e-18
-2.79733e-18
-2.67146e-18
-2.79961e-18
-2.80205e-18
-2.83995e-18
-2.65081e-18
-2.88011e-18
-2.7515e-18
-2.74921e-18
-2.67411e-18
-2.87806e-18
-2.8577e-18
-2.8638e-18
-2.81373e-18
-2.84766e-18
-2.90273e-18
-2.82648e-18
-2.68575e-18
-2.8012e-18
-2.85639e-18
-2.89969e-18
-2.84495e-18
-2.86366e-18
-2.86325e-18
-2.72921e-18
-2.70067e-18
-2.91044e-18
-2.75712e-18
-2.75009e-18
-2.8354e-18
-2.87807e-18
-2.88061e-18
-2.85484e-18
-2.74593e-18
-2.83815e-18
-2.74311e-18
-2.88385e-18
-2.85402e-18
-2.85225e-18
-2.81984e-18
-2.82109e-18
-2.84448e-18
-2.82549e-18
-2.75421e-18
-2.83707e-18
-2.70846e-18
-2.9269e-18
-2.80949e-18
-2.78588e-18
-2.74394e-18
-2.97305e-18
-2.73072e-18
-2.80047e-18
-2.97321e-18
-2.80042e-18
-2.95656e-18
-2.88543e-18
-2.86475e-18
-2.80572e-18
-2.77144e-18
-2.72467e-18
-2.86814e-18
-2.89071e-18
-2.77775e-18
-2.95592e-18
-2.75126e-18
-2.74651e-18
-2.80716e-18
-2.79208e-18
-2.78613e-18
-2.78558e-18
-2.92754e-18
-2.73647e-18
-2.82233e-18
-2.85559e-18
-2.6529e-18
-2.75943e-18
-2.80668e-18
-2.783e-18
-2.68553e-18
-2.92998e-18
-2.92011e-18
-2.7442e-18
-2.75888e-18
-2.62721e-18
-2.85284e-18
-2.78959e-18
-2.78442e-18
-2.77701e-18
-2.81663e-18
-2.78264e-18
-2.82634e-18
-2.78472e-18
-2.70667e-18
-2.75686e-18
-2.86129e-18
-2.81356e-18
-2.91938e-18
-2.87366e-18
-2.81324e-18
-2.80331e-18
-2.79044e-18
-2.77664e-18
-2.83012e-18
-2.84165e-18
-2.85019e-18
-2.86662e-18
-2.85439e-18
-2.90073e-18
-2.78625e-18
-2.73363e-18
-2.92661e-18
-2.86804e-18
-2.84276e-18
-2.83984e-18
-2.93871e-18
-2.89271e-18
-2.73095e-18
-2.76338e-18
-2.85494e-18
-2.90067e-18
-2.94642e-18
-2.8152e-18
-2.89036e-18
-2.77505e-18
-2.77594e-18
-2.80054e-18
-2.86145e-18
-2.84887e-18
-2.84582e-18
-2.78523e-18
-5.31742e-18
-5.15774e-18
-5.25461e-18
-5.04225e-18
-5.32193e-18
-5.24541e-18
-5.05899e-18
-5.22334e-18
-5.14128e-18
-5.23676e-18
-5.09075e-18
-5.09856e-18
-5.10859e-18
-5.12005e-18
-5.39875e-18
-5.11876e-18
-5.17998e-18
-5.20825e-18
-5.16942e-18
-5.21553e-18
-5.53357e-18
-5.05638e-18
-5.18047e-18
-5.23932e-18
-5.20298e-18
-5.1917e-18
-5.3042e-18
-5.22143e-18
-5.11809e-18
-5.18754e-18
-5.11062e-18
-5.10824e-18
-5.073e-18
-5.2655e-18
-5.15298e-18
-5.23816e-18
-5.14906e-18
-5.08077e-18
-5.29948e-18
-4.93294e-18
-5.42865e-18
-5.24864e-18
-5.02213e-18
-5.09809e-18
-5.0697e-18
-5.42103e-18
-5.436e-18
-5.16148e-18
-5.17129e-18
-5.07782e-18
-5.12246e-18
-5.26163e-18
-5.15811e-18
-5.47595e-18
-5.22348e-18
-5.54462e-18
-5.20653e-18
-4.82138e-18
-5.0221e-18
-5.19239e-18
-5.03346e-18
-5.21995e-18
-5.20706e-18
-5.44518e-18
-4.97189e-18
-5.09019e-18
-5.27332e-18
-5.4517e-18
-5.20236e-18
-5.17339e-18
-5.27233e-18
-5.13623e-18
-5.21852e-18
-5.19585e-18
-5.15787e-18
-5.11841e-18
-5.23708e-18
-5.32641e-18
-5.00575e-18
-5.32709e-18
-5.21096e-18
-5.10497e-18
-5.23381e-18
-5.14806e-18
-5.09979e-18
-5.0494e-18
-5.32445e-18
-5.17971e-18
-4.94644e-18
-5.40532e-18
-5.13006e-18
-4.90814e-18
-5.27566e-18
-5.05726e-18
-5.13113e-18
-5.22706e-18
-5.29932e-18
-5.00831e-18
-5.12657e-18
-5.18195e-18
-5.06123e-18
-5.07121e-18
-5.24784e-18
-5.28275e-18
-5.21823e-18
-5.30057e-18
-5.36339e-18
-5.04346e-18
-5.3319e-18
-5.37647e-18
-5.07803e-18
-5.21287e-18
-5.34712e-18
-5.3258e-18
-5.10779e-18
-5.244e-18
-5.14487e-18
-5.23604e-18
-5.17596e-18
-5.15833e-18
-5.1989e-18
-5.0029e-18
-5.12867e-18
-5.37909e-18
-5.19657e-18
-5.17403e-18
-5.26164e-18
-5.15471e-18
-5.20676e-18
-5.30613e-18
-4.97819e-18
-5.27563e-18
-5.24979e-18
-5.25415e-18
-5.23856e-18
-5.17517e-18
-5.16775e-18
-5.01457e-18
-5.24325e-18
-5.27383e-18
-5.13086e-18
-5.47836e-18
-5.26797e-18
-5.22078e-18
-5.1631e-18
-5.22841e-18
-4.93698e-18
-5.10544e-18
-5.23588e-18
-5.00335e-18
-4.95079e-18
-5.43506e-18
-5.0742e-18
-5.14897e-18
-5.10403e-18
-5.41192e-18
-5.28734e-18
-5.13676e-18
-5.44207e-18
-5.38965e-18
-5.17458e-18
-5.03163e-18
-5.22227e-18
-5.18554e-18
-5.04576e-18
-5.22905e-18
-5.05297e-18
-5.32622e-18
-5.21149e-18
-5.0416e-18
-5.13729e-18
-5.38087e-18
-5.36448e-18
-5.25987e-18
-5.23916e-18
-5.32517e-18
-4.92147e-18
-5.02144e-18
-5.23289e-18
-4.99626e-18
-5.25171e-18
-5.02793e-18
-5.12547e-18
-5.36782e-18
-4.94413e-18
-4.92451e-18
-5.37284e-18
-5.34963e-18
-5.03062e-18
-5.31138e-18
-5.11107e-18
-5.11056e-18
-5.13713e-18
-5.38666e-18
-5.07662e-18
-5.24071e-18
-5.12335e-18
-4.8953e-18
-5.12354e-18
-5.28605e-18
-5.17257e-18
-5.55147e-18
-5.31026e-18
-5.18031e-18
-5.4108e-18
-5.45604e-18
-5.24131e-18
-4.95613e-18
-5.28175e-18
-5.05938e-18
-5.20683e-18
-5.19664e-18
-5.25762e-18
-5.26426e-18
-5.0855e-18
-5.30157e-18
-5.20922e-18
-5.14715e-18
-5.34023e-18
-5.10407e-18
-4.82002e-18
-5.13563e-18
-5.35999e-18
-5.03605e-18
-5.31371e-18
-5.1398e-18
-5.06732e-18
-5.23733e-18
-5.21343e-18
-5.08168e-18
-5.38799e-18
-5.14647e-18
-5.20258e-18
-5.30965e-18
-5.24529e-18
-5.26028e-18
-5.1738e-18
-5.27802e-18
-5.25919e-18
-4.96251e-18
-5.07228e-18
-5.11176e-18
-5.0787e-18
-4.91579e-18
-5.29045e-18
-5.27265e-18
-5.25143e-18
-5.2267e-18
-5.29535e-18
-5.08881e-18
-5.31257e-18
-5.29442e-18
-5.25264e-18
-5.27909e-18
-5.03884e-18
-5.06576e-18
-9.76946e-18
-1.00339e-17
-9.62701e-18
-9.44937e-18
-9.58854e-18
-9.78739e-18
-9.86458e-18
-1.00759e-17
-9.28728e-18
-9.69888e-18
-1.01846e-17
-9.611e-18
-9.54769e-18
-9.75978e-18
-9.58796e-18
-9.83817e-18
-9.60402e-18
-9.50713e-18
-9.35561e-18
-9.96973e-18
-1.02639e-17
-9.36473e-18
-9.59724e-18
-1.02055e-17
-9.72553e-18
-9.82407e-18
-9.96031e-18
-9.7472e-18
-9.84307e-18
-9.56507e-18
-9.91896e-18
-9.59309e-18
-9.78455e-18
-9.27254e-18
-9.73104e-18
-9.42812e-18
-9.74849e-18
-1.00942e-17
-9.506e-18
-9.30107e-18
-9.97147e-18
-9.70766e-18
-1.00318e-17
-9.64137e-18
-1.00068e-17
-9.61471e-18
-9.45721e-18
-9.68181e-18
-9.8778e-18
-9.68843e-18
-9.98035e-18
-9.58132e-18
-9.48288e-18
-9.94502e-18
-9.48752e-18
-9.54104e-18
-9.46216e-18
-9.3202e-18
-9.23848e-18
-9.96823e-18
-9.88909e-18
-9.76768e-18
-9.72696e-18
-9.54029e-18
-9.70567e-18
-9.73876e-18
-9.83845e-18
-1.00009e-17
-9.25407e-18
-9.82507e-18
-9.79299e-18
-9.29911e-18
-9.78242e-18
-9.72102e-18
-9.79316e-18
-9.67142e-18
-9.72298e-18
-9.97039e-18
-9.21914e-18
-9.86312e-18
-1.01098e-17
-9.40832e-18
-9.97285e-18
-1.03514e-17
-9.64865e-18
-9.00211e-18
-9.83717e-18
-9.61265e-18
-9.27417e-18
-9.98151e-18
-9.87079e-18
-9.42044e-18
-9.78705e-18
-9.57576e-18
-9.79356e-18
-9.81834e-18
-1.01556e-17
-9.36825e-18
-9.76163e-18
-9.44546e-18
-1.02264e-17
-9.51561e-18
-9.81627e-18
-9.679e-18
-9.5579e-18
-9.44017e-18
-1.0077e-17
-9.86622e-18
-1.00645e-17
-9.73482e-18
-9.43091e-18
-9.56767e-18
-9.57041e-18
-9.79471e-18
-9.8435e-18
-9.54927e-18
-9.6038e-18
-9.9416e-18
-9.90593e-18
-9.57198e-18
-9.65651e-18
-9.44707e-18
-9.58577e-18
-9.79561e-18
-9.77881e-18
-9.98588e-18
-1.01704e-17
-1.02499e-17
-9.53287e-18
-9.75437e-18
-1.00067e-17
-9.90006e-18
-9.76654e-18
-9.65074e-18
-1.00507e-17
-9.83185e-18
-9.83053e-18
-9.5825e-18
-9.48669e-18
-1.01136e-17
-9.28238e-18
-9.64015e-18
-9.45472e-18
-9.83047e-18
-9.7293e-18
-9.50643e-18
-9.49686e-18
-9.73851e-18
-9.98494e-18
-9.88225e-18
-9.79053e-18
-1.01737e-17
-9.49042e-18
-9.85179e-18
-1.00487e-17
-9.44839e-18
-9.56819e-18
-1.00854e-17
-1.03274e-17
-9.46599e-18
-9.50715e-18
-9.69755e-18
-1.00934e-17
-9.8802e-18
-9.63841e-18
-9.40991e-18
-9.30235e-18
-1.00906e-17
-9.89347e-18
-9.35173e-18
-9.247e-18
-9.72139e-18
-9.73784e-18
-9.46325e-18
-9.52087e-18
-1.01081e-17
-1.01016e-17
-9.58328e-18
-9.87771e-18
-9.81988e-18
-9.92083e-18
-9.78217e-18
-9.56299e-18
-9.78934e-18
-9.70703e-18
-9.69577e-18
-9.9044e-18
-1.00723e-17
-9.48306e-18
-9.90952e-18
-1.01714e-17
-9.71317e-18
-9.69595e-18
-1.00051e-17
-9.79199e-18
-9.25171e-18
-9.61923e-18
-1.00564e-17
-9.82341e-18
-9.67286e-18
-9.80745e-18
-9.49053e-18
-9.56586e-18
-9.83913e-18
-9.71051e-18
-9.77604e-18
-9.60204e-18
-9.39254e-18
-9.8783e-18
-9.92599e-18
-1.04462e-17
-9.5945e-18
-9.3791e-18
-9.38506e-18
-9.41049e-18
-1.01688e-17
-9.91644e-18
-1.02127e-17
-9.64001e-18
-9.44987e-18
-9.90369e-18
-9.75639e-18
-9.63338e-18
-9.50511e-18
-9.78916e-18
-1.00359e-17
-9.5821e-18
-9.94611e-18
-1.00793e-17
-9.40397e-18
-1.01014e-17
-9.537e-18
-9.90038e-18
-9.75596e-18
-9.68666e-18
-9.94172e-18
-9.45804e-18
-9.71698e-18
-9.69275e-18
-9.68646e-18
-9.80336e-18
-9.66216e-18
-9.63014e-18
-9.91629e-18
-9.98267e-18
-9.16152e-18
-1.03965e-17
-9.8509e-18
-9.73224e-18
-9.0593e-18
-9.24076e-18
-9.77481e-18
-9.42223e-18
-9.56645e-18
-1.00151e-17
-9.68039e-18
-1.8149e-17
-1.73908e-17
-1.73857e-17
-1.83595e-17
-1.90814e-17
-1.80461e-17
-1.84153e-17
-1.80905e-17
-1.78251e-17
-1.78012e-17
-1.81585e-17
-1.9317e-17
-1.7857e-17
-1.78509e-17
-1.74328e-17
-1.80695e-17
-1.79905e-17
-1.80338e-17
-1.83291e-17
-1.8024e-17
-1.8254e-17
-1.7662e-17
-1.82244e-17
-1.80789e-17
-1.86096e-17
-1.83232e-17
-1.80485e-17
-1.74738e-17
-1.81297e-17
-1.79898e-17
-1.91067e-17
-1.84505e-17
-1.78005e-17
-1.85321e-17
-1.84504e-17
-1.74613e-17
-1.85518e-17
-1.85765e-17
-1.78879e-17
-1.85779e-17
-1.82549e-17
-1.71835e-17
-1.82124e-17
-1.84304e-17
-1.81643e-17
-1.83657e-17
-1.82127e-17
-1.85408e-17
-1.80207e-17
-1.72677e-17
-1.78592e-17
-1.83019e-17
-1.72509e-17
-1.87979e-17
-1.82802e-17
-1.82942e-17
-1.85172e-17
-1.87718e-17
-1.88237e-17
-1.82923e-17
-1.88723e-17
-1.78007e-17
-1.82333e-17
-1.73648e-17
-1.73666e-17
-1.82655e-17
-1.83646e-17
-1.8698e-17
-1.76594e-17
-1.86743e-17
-1.76733e-17
-1.86394e-17
-1.8366e-17
-1.81107e-17
-1.77703e-17
-1.87847e-17
-1.87373e-17
-1.82719e-17
-1.81451e-17
-1.83742e-17
-1.7794e-17
-1.85708e-17
-1.81622e-17
-1.78456e-17
-1.83539e-17
-1.79489e-17
-1.77176e-17
-1.84886e-17
-1.81996e-17
-1.81585e-17
-1.81588e-17
-1.83361e-17
-1.7814e-17
-1.77082e-17
-1.76666e-17
-1.88337e-17
-1.81264e-17
-1.78079e-17
-1.77668e-17
-1.84987e-17
-1.8359e-17
-1.80821e-17
-1.80466e-17
-1.76607e-17
-1.8163e-17
-1.82989e-17
-1.80074e-17
-1.82832e-17
-1.76198e-17
-1.77968e-17
-1.80165e-17
-1.77534e-17
-1.72664e-17
-1.76217e-17
-1.87516e-17
-1.81951e-17
-1.79474e-17
-1.89014e-17
-1.87461e-17
-1.87197e-17
-1.84495e-17
-1.74385e-17
-1.84504e-17
-1.92551e-17
-1.76187e-17
-1.81107e-17
-1.82702e-17
-1.93512e-17
-1.7991e-17
-1.80402e-17
-1.77074e-17
-1.76869e-17
-1.71078e-17
-1.77718e-17
-1.89012e-17
-1.84764e-17
-1.81983e-17
-1.7595e-17
-1.87501e-17
-1.73399e-17
-1.86478e-17
-1.7699e-17
-1.87995e-17
-1.86998e-17
-1.85309e-17
-1.75042e-17
-1.7369e-17
-1.85362e-17
-1.79829e-17
-1.78353e-17
-1.81586e-17
-1.83503e-17
-1.85494e-17
-1.80756e-17
-1.86972e-17
-1.80764e-17
-1.77919e-17
-1.86421e-17
-1.82534e-17
-1.73902e-17
-1.83719e-17
-1.82026e-17
-1.80705e-17
-1.78204e-17
-1.78756e-17
-1.78457e-17
-1.74478e-17
-1.83427e-17
-1.86527e-17
-1.9616e-17
-1.79506e-17
-1.76326e-17
-1.80028e-17
-1.8601e-17
-1.77268e-17
-1.86676e-17
-1.85411e-17
-1.75312e-17
-1.8392e-17
-1.78585e-17
-1.87382e-17
-1.8848e-17
-1.80861e-17
-1.77955e-17
-1.87159e-17
-1.73828e-17
-1.77375e-17
-1.79224e-17
-1.87936e-17
-1.83832e-17
-1.8449e-17
-1.84536e-17
-1.87731e-17
-1.8568e-17
-1.7717e-17
-1.81967e-17
-1.83157e-17
-1.697e-17
-1.8028e-17
-1.8595e-17
-1.88777e-17
-1.73639e-17
-1.78434e-17
-1.89808e-17
-1.77609e-17
-1.80189e-17
-1.82465e-17
-1.81439e-17
-1.83159e-17
-1.82371e-17
-1.7771e-17
-1.78189e-17
-1.87722e-17
-1.74822e-17
-1.84027e-17
-1.80365e-17
-1.79988e-17
-1.84274e-17
-1.78679e-17
-1.80484e-17
-1.82242e-17
-1.77289e-17
-1.72896e-17
-1.88693e-17
-1.9253e-17
-1.85506e-17
-1.75031e-17
-1.82974e-17
-1.69788e-17
-1.76814e-17
-1.84114e-17
-1.76574e-17
-1.85587e-17
-1.81577e-17
-1.79704e-17
-1.84673e-17
-1.74097e-17
-1.81635e-17
-1.79875e-17
-1.81232e-17
-1.84697e-17
-1.74254e-17
-1.87077e-17
-1.81398e-17
-1.82979e-17
-1.86837e-17
-1.88054e-17
-1.782e-17
-1.72207e-17
-1.82328e-17
-1.85922e-17
-1.8906e-17
-1.88008e-17
-1.82132e-17
-1.83719e-17
-1.81893e-17
-3.40211e-17
-3.55948e-17
-3.38189e-17
-3.45832e-17
-3.35593e-17
-3.22398e-17
-3.3832e-17
-3.37269e-17
-3.37796e-17
-3.50495e-17
-3.42273e-17
-3.55622e-17
-3.49068e-17
-3.51211e-17
-3.34288e-17
-3.32708e-17
-3.40397e-17
-3.46715e-17
-3.38309e-17
-3.32577e-17
-3.38957e-17
-3.43139e-17
-3.51031e-17
-3.4142e-17
-3.45045e-17
-3.44909e-17
-3.3857e-17
-3.35754e-17
-3.48557e-17
-3.47151e-17
-3.30287e-17
-3.45923e-17
-3.36112e-17
-3.43731e-17
-3.45406e-17
-3.44809e-17
-3.43776e-17
-3.433e-17
-3.34428e-17
-3.29517e-17
-3.30889e-17
-3.32482e-17
-3.58529e-17
-3.3328e-17
-3.31319e-17
-3.32067e-17
-3.56176e-17
-3.34737e-17
-3.42533e-17
-3.68381e-17
-3.12449e-17
-3.18813e-17
-3.44295e-17
-3.60461e-17
-3.37077e-17
-3.31006e-17
-3.44614e-17
-3.44336e-17
-3.32491e-17
-3.32096e-17
-3.28611e-17
-3.39925e-17
-3.3911e-17
-3.5384e-17
-3.4393e-17
-3.3144e-17
-3.30408e-17
-3.50416e-17
-3.31472e-17
-3.17336e-17
-3.42244e-17
-3.33645e-17
-3.51805e-17
-3.61468e-17
-3.29326e-17
-3.61983e-17
-3.37663e-17
-3.21096e-17
-3.39433e-17
-3.36512e-17
-3.4369e-17
-3.59133e-17
-3.49061e-17
-3.39049e-17
-3.37549e-17
-3.44347e-17
-3.34711e-17
-3.31496e-17
-3.32096e-17
-3.30481e-17
-3.49715e-17
-3.44089e-17
-3.37693e-17
-3.36571e-17
-3.3128e-17
-3.34948e-17
-3.31493e-17
-3.30203e-17
-3.488e-17
-3.31541e-17
-3.35344e-17
-3.40136e-17
-3.45036e-17
-3.46976e-17
-3.30741e-17
-3.49039e-17
-3.45063e-17
-3.42037e-17
-3.3111e-17
-3.35699e-17
-3.19334e-17
-3.41082e-17
-3.46765e-17
-3.31344e-17
-3.42453e-17
-3.25886e-17
-3.40902e-17
-3.36177e-17
-3.43923e-17
-3.40483e-17
-3.49187e-17
-3.34159e-17
-3.42626e-17
-3.4057e-17
-3.43203e-17
-3.41453e-17
-3.42737e-17
-3.42496e-17
-3.32277e-17
-3.19878e-17
-3.41381e-17
-3.42955e-17
-3.33412e-17
-3.36905e-17
-3.484e-17
-3.39449e-17
-3.59236e-17
-3.21214e-17
-3.52635e-17
-3.48533e-17
-3.40301e-17
-3.40968e-17
-3.43598e-17
-3.36875e-17
-3.54078e-17
-3.53501e-17
-3.1865e-17
-3.49987e-17
-3.46249e-17
-3.27554e-17
-3.38043e-17
-3.4793e-17
-3.42471e-17
-3.33891e-17
-3.52937e-17
-3.50418e-17
-3.20834e-17
-3.33237e-17
-3.49865e-17
-3.43754e-17
-3.30015e-17
-3.35444e-17
-3.39864e-17
-3.41522e-17
-3.51864e-17
-3.51238e-17
-3.39039e-17
-3.51094e-17
-3.46277e-17
-3.31996e-17
-3.55927e-17
-3.29142e-17
-3.33011e-17
-3.34062e-17
-3.36289e-17
-3.43625e-17
-3.37133e-17
-3.4465e-17
-3.48034e-17
-3.39096e-17
-3.24017e-17
-3.44176e-17
-3.43598e-17
-3.16489e-17
-3.63502e-17
-3.59774e-17
-3.51476e-17
-3.24012e-17
-3.4468e-17
-3.40148e-17
-3.36947e-17
-3.48021e-17
-3.3158e-17
-3.49196e-17
-3.38475e-17
-3.40351e-17
-3.41804e-17
-3.38859e-17
-3.40804e-17
-3.40482e-17
-3.32933e-17
-3.4014e-17
-3.40033e-17
-3.39092e-17
-3.31874e-17
-3.28356e-17
-3.33759e-17
-3.45918e-17
-3.41596e-17
-3.3352e-17
-3.35281e-17
-3.46716e-17
-3.28167e-17
-3.28244e-17
-3.55262e-17
-3.40042e-17
-3.44239e-17
-3.46736e-17
-3.36599e-17
-3.59797e-17
-3.53761e-17
-3.31877e-17
-3.36871e-17
-3.50214e-17
-3.40772e-17
-3.40838e-17
-3.35861e-17
-3.27855e-17
-3.47586e-17
-3.45466e-17
-3.23107e-17
-3.28757e-17
-3.5277e-17
-3.42309e-17
-3.53537e-17
-3.48435e-17
-3.44884e-17
-3.29124e-17
-3.53773e-17
-3.42451e-17
-3.4332e-17
-3.177e-17
-3.42921e-17
-3.46474e-17
-3.45251e-17
-3.40319e-17
-3.44044e-17
-3.41974e-17
-3.32935e-17
-3.44384e-17
-3.31868e-17
-3.48447e-17
-3.34516e-17
-3.44524e-17
-3.43309e-17
-3.35489e-17
-6.15644e-17
-6.09336e-17
-6.52647e-17
-6.569e-17
-6.29413e-17
-6.38264e-17
-6.08003e-17
-6.42825e-17
-6.35087e-17
-6.52051e-17
-6.23868e-17
-6.20817e-17
-6.50147e-17
-6.15099e-17
-6.33739e-17
-6.42815e-17
-6.46354e-17
-6.44849e-17
-6.39305e-17
-6.12982e-17
-6.2545e-17
-6.2673e-17
-6.508e-17
-6.45515e-17
-6.30438e-17
-6.19411e-17
-6.44631e-17
-6.2247e-17
-6.41298e-17
-6.52868e-17
-6.32311e-17
-6.76624e-17
-6.64161e-17
-6.11495e-17
-6.0878e-17
-6.29222e-17
-6.26066e-17
-6.24549e-17
-6.28357e-17
-6.56275e-17
-6.54054e-17
-6.30072e-17
-6.41566e-17
-6.17456e-17
-6.29036e-17
-6.39598e-17
-6.37261e-17
-6.41147e-17
-6.59303e-17
-6.30094e-17
-6.1297e-17
-6.32829e-17
-6.72379e-17
-6.37807e-17
-6.45672e-17
-6.15138e-17
-6.38711e-17
-6.34631e-17
-6.25174e-17
-6.19125e-17
-6.15979e-17
-6.41457e-17
-6.44103e-17
-6.3147e-17
-6.58569e-17
-6.39468e-17
-6.2769e-17
-6.32789e-17
-6.32091e-17
-6.46472e-17
-6.37211e-17
-6.14991e-17
-6.12464e-17
-6.25935e-17
-6.42443e-17
-6.16365e-17
-6.22481e-17
-5.97993e-17
-6.60376e-17
-6.35301e-17
-6.2306e-17
-6.42292e-17
-6.31249e-17
-6.55305e-17
-6.24354e-17
-6.23409e-17
-6.22024e-17
-6.26269e-17
-6.68868e-17
-6.29146e-17
-6.32259e-17
-6.33411e-17
-6.41824e-17
-6.43754e-17
-6.26199e-17
-6.34503e-17
-6.30749e-17
-6.24197e-17
-6.20985e-17
-6.23745e-17
-6.35376e-17
-6.40714e-17
-6.37274e-17
-6.41954e-17
-6.40456e-17
-6.52087e-17
-6.63757e-17
-6.11248e-17
-5.9369e-17
-6.56314e-17
-6.5121e-17
-6.58236e-17
-6.36812e-17
-6.35224e-17
-6.43296e-17
-6.21601e-17
-6.42844e-17
-6.08298e-17
-6.25415e-17
-5.87361e-17
-6.43664e-17
-6.20649e-17
-6.5352e-17
-6.44609e-17
-6.28953e-17
-6.03834e-17
-6.45438e-17
-6.42221e-17
-6.17224e-17
-6.09926e-17
-6.21636e-17
-6.48775e-17
-6.39926e-17
-6.60649e-17
-6.37006e-17
-6.36365e-17
-6.65718e-17
-6.17117e-17
-6.33394e-17
-6.20238e-17
-6.31564e-17
-6.2564e-17
-6.23088e-17
-6.14753e-17
-6.40123e-17
-6.3885e-17
-6.30333e-17
-6.10364e-17
-6.50702e-17
-6.30452e-17
-6.15285e-17
-6.44615e-17
-6.19645e-17
-6.34142e-17
-6.51157e-17
-6.4057e-17
-6.10704e-17
-6.24829e-17
-6.47809e-17
-6.4115e-17
-6.31097e-17
-6.2994e-17
-6.0906e-17
-6.47654e-17
-6.48921e-17
-6.42407e-17
-6.38828e-17
-6.28959e-17
-6.38689e-17
-6.37908e-17
-6.52965e-17
-6.2067e-17
-6.40798e-17
-6.4098e-17
-6.48964e-17
-6.11796e-17
-6.03928e-17
-6.05798e-17
-6.05073e-17
-6.23079e-17
-6.33943e-17
-6.43256e-17
-6.33543e-17
-6.24629e-17
-6.50079e-17
-6.4715e-17
-6.56001e-17
-6.29671e-17
-6.39968e-17
-6.36888e-17
-6.18448e-17
-6.54202e-17
-6.33905e-17
-6.0757e-17
-6.40273e-17
-6.43289e-17
-6.12152e-17
-6.51167e-17
-6.4337e-17
-6.40738e-17
-6.28535e-17
-6.56915e-17
-6.39851e-17
-6.37922e-17
-6.38473e-17
-6.12928e-17
-5.92948e-17
-6.45746e-17
-6.39476e-17
-6.29916e-17
-6.62878e-17
-6.36508e-17
-6.57879e-17
-6.27913e-17
-6.36531e-17
-6.54823e-17
-6.32608e-17
-6.12899e-17
-6.3001e-17
-6.33503e-17
-6.40329e-17
-6.17196e-17
-6.03514e-17
-6.00222e-17
-6.25539e-17
-6.35471e-17
-6.64691e-17
-6.1265e-17
-6.13824e-17
-6.65198e-17
-6.43253e-17
-5.97415e-17
-6.20881e-17
-6.21445e-17
-6.51916e-17
-6.49865e-17
-6.2545e-17
-6.20122e-17
-6.37443e-17
-6.27508e-17
-6.54627e-17
-6.11931e-17
-6.12708e-17
-6.63844e-17
-6.12714e-17
-6.23645e-17
-6.21831e-17
-6.55279e-17
-6.22164e-17
-6.18068e-17
-6.2941e-17
-5.95745e-17
-6.23286e-17
-5.99262e-17
-6.48097e-17
-6.18011e-17
-1.18224e-16
-1.19504e-16
-1.1861e-16
-1.20995e-16
-1.13219e-16
-1.23892e-16
-1.15975e-16
-1.14319e-16
-1.19691e-16
-1.14791e-16
-1.21621e-16
-1.17719e-16
-1.14383e-16
-1.16277e-16
-1.2143e-16
-1.13215e-16
-1.17321e-16
-1.17493e-16
-1.15599e-16
-1.17447e-16
-1.17353e-16
-1.22071e-16
-1.19826e-16
-1.19772e-16
-1.14767e-16
-1.19456e-16
-1.19158e-16
-1.19381e-16
-1.14033e-16
-1.20116e-16
-1.17674e-16
-1.17166e-16
-1.24799e-16
-1.16362e-16
-1.15214e-16
-1.2126e-16
-1.19151e-16
-1.16165e-16
-1.17109e-16
-1.21492e-16
-1.16466e-16
-1.17764e-16
-1.18917e-16
-1.20933e-16
-1.17727e-16
-1.18203e-16
-1.19893e-16
-1.16405e-16
-1.15749e-16
-1.14401e-16
-1.15531e-16
-1.16355e-16
-1.23403e-16
-1.14999e-16
-1.21149e-16
-1.14653e-16
-1.13989e-16
-1.22965e-16
-1.25455e-16
-1.1863e-16
-1.19074e-16
-1.20873e-16
-1.21916e-16
-1.1912e-16
-1.16446e-16
-1.17581e-16
-1.16508e-16
-1.18713e-16
-1.13773e-16
-1.21645e-16
-1.17158e-16
-1.20904e-16
-1.17985e-16
-1.1376e-16
-1.18911e-16
-1.15043e-16
-1.13173e-16
-1.21119e-16
-1.1808e-16
-1.16121e-16
-1.19642e-16
-1.20965e-16
-1.18366e-16
-1.17787e-16
-1.15939e-16
-1.19314e-16
-1.17082e-16
-1.14305e-16
-1.23043e-16
-1.19379e-16
-1.18721e-16
-1.19103e-16
-1.16341e-16
-1.2183e-16
-1.15844e-16
-1.14076e-16
-1.20825e-16
-1.17745e-16
-1.13253e-16
-1.1842e-16
-1.17906e-16
-1.14086e-16
-1.21685e-16
-1.17886e-16
-1.1331e-16
-1.17279e-16
-1.1909e-16
-1.16118e-16
-1.10653e-16
-1.19084e-16
-1.18088e-16
-1.15726e-16
-1.14998e-16
-1.13279e-16
-1.15301e-16
-1.223e-16
-1.1935e-16
-1.16071e-16
-1.17597e-16
-1.1918e-16
-1.18645e-16
-1.20107e-16
-1.12563e-16
-1.19373e-16
-1.23262e-16
-1.17714e-16
-1.17133e-16
-1.14604e-16
-1.19349e-16
-1.16471e-16
-1.14433e-16
-1.17736e-16
-1.14621e-16
-1.20828e-16
-1.18723e-16
-1.14527e-16
-1.18604e-16
-1.15994e-16
-1.19126e-16
-1.1709e-16
-1.19473e-16
-1.23309e-16
-1.16775e-16
-1.12437e-16
-1.2307e-16
-1.17741e-16
-1.15546e-16
-1.17135e-16
-1.21604e-16
-1.18118e-16
-1.16836e-16
-1.21347e-16
-1.16715e-16
-1.14566e-16
-1.14078e-16
-1.16791e-16
-1.20875e-16
-1.1901e-16
-1.24303e-16
-1.14202e-16
-1.16038e-16
-1.20824e-16
-1.16889e-16
-1.16285e-16
-1.20855e-16
-1.15248e-16
-1.24243e-16
-1.14521e-16
-1.17037e-16
-1.20415e-16
-1.14729e-16
-1.1539e-16
-1.18602e-16
-1.21528e-16
-1.17441e-16
-1.17335e-16
-1.18837e-16
-1.16061e-16
-1.24233e-16
-1.20383e-16
-1.15834e-16
-1.21595e-16
-1.16484e-16
-1.21082e-16
-1.15512e-16
-1.17669e-16
-1.15993e-16
-1.16687e-16
-1.1642e-16
-1.21193e-16
-1.18884e-16
-1.16379e-16
-1.18187e-16
-1.14749e-16
-1.22185e-16
-1.17842e-16
-1.19536e-16
-1.14625e-16
-1.19693e-16
-1.24267e-16
-1.17403e-16
-1.20498e-16
-1.15113e-16
-1.14763e-16
-1.16218e-16
-1.19538e-16
-1.194e-16
-1.15409e-16
-1.17989e-16
-1.15751e-16
-1.17894e-16
-1.12955e-16
-1.20266e-16
-1.276e-16
-1.19118e-16
-1.1629e-16
-1.18969e-16
-1.17121e-16
-1.23319e-16
-1.11669e-16
-1.21009e-16
-1.19622e-16
-1.17291e-16
-1.18716e-16
-1.19772e-16
-1.13296e-16
-1.20087e-16
-1.14697e-16
-1.17677e-16
-1.21334e-16
-1.10858e-16
-1.20039e-16
-1.13208e-16
-1.16979e-16
-1.18263e-16
-1.20718e-16
-1.14564e-16
-1.16226e-16
-1.12231e-16
-1.21595e-16
-1.23986e-16
-1.18026e-16
-1.19062e-16
-1.2295e-16
-1.16984e-16
-1.22311e-16
-1.14361e-16
-1.12088e-16
-1.1545e-16
-1.17046e-16
-1.20976e-16
-1.09619e-16
-1.21168e-16
-1.16265e-16
-1.22352e-16
-1.21411e-16
-2.21455e-16
-2.31414e-16
-2.18984e-16
-2.16577e-16
-2.14452e-16
-2.22785e-16
-2.22288e-16
-2.2289e-16
-2.27421e-16
-2.12412e-16
-2.20499e-16
-2.18065e-16
-2.27085e-16
-2.13236e-16
-2.19961e-16
-2.16683e-16
-2.2261e-16
-2.18042e-16
-2.20128e-16
-2.24545e-16
-2.28835e-16
-2.1957e-16
-2.1842e-16
-2.17127e-16
-2.18104e-16
-2.16771e-16
-2.17892e-16
-2.21962e-16
-2.20733e-16
-2.12039e-16
-2.16693e-16
-2.15329e-16
-2.20996e-16
-2.17613e-16
-2.18866e-16
-2.1673e-16
-2.11888e-16
-2.24189e-16
-2.35349e-16
-2.26604e-16
-2.26074e-16
-2.10123e-16
-2.14136e-16
-2.29581e-16
-2.22237e-16
-2.18389e-16
-2.16581e-16
-2.3133e-16
-2.19532e-16
-2.11536e-16
-2.08109e-16
-2.2224e-16
-2.25133e-16
-2.18731e-16
-2.286e-16
-2.30445e-16
-2.17794e-16
-2.23784e-16
-2.21031e-16
-2.22223e-16
-2.14578e-16
-2.17785e-16
-2.19993e-16
-2.23272e-16
-2.17722e-16
-2.21251e-16
-2.20417e-16
-2.19888e-16
-2.18468e-16
-2.10312e-16
-2.24749e-16
-2.35383e-16
-2.18638e-16
-2.2017e-16
-2.24066e-16
-2.20326e-16
-2.17194e-16
-2.2292e-16
-2.15069e-16
-2.07424e-16
-2.20394e-16
-2.20654e-16
-2.20142e-16
-2.20926e-16
-2.16343e-16
-2.23457e-16
-2.30388e-16
-2.14568e-16
-2.1754e-16
-2.14387e-16
-2.23983e-16
-2.14914e-16
-2.23033e-16
-2.26082e-16
-2.19403e-16
-2.21162e-16
-2.24333e-16
-2.27639e-16
-2.30515e-16
-2.1881e-16
-2.27138e-16
-2.15985e-16
-2.18665e-16
-2.24055e-16
-2.23053e-16
-2.11421e-16
-2.2456e-16
-2.33986e-16
-2.13889e-16
-2.21295e-16
-2.15543e-16
-2.20311e-16
-2.21875e-16
-2.08868e-16
-2.25481e-16
-2.26892e-16
-2.33731e-16
-2.30751e-16
-2.29061e-16
-2.16136e-16
-2.20667e-16
-2.2802e-16
-2.16978e-16
-2.16532e-16
-2.30251e-16
-2.2605e-16
-2.1937e-16
-2.15861e-16
-2.25825e-16
-2.25697e-16
-2.1625e-16
-2.18822e-16
-2.30169e-16
-2.24167e-16
-2.1432e-16
-2.06992e-16
-2.17315e-16
-2.23276e-16
-2.25497e-16
-2.12417e-16
-2.22221e-16
-2.25402e-16
-2.19631e-16
-2.14423e-16
-2.3112e-16
-2.13908e-16
-2.22426e-16
-2.29871e-16
-2.33438e-16
-2.17457e-16
-2.20996e-16
-2.2782e-16
-2.22032e-16
-2.19341e-16
-2.20445e-16
-2.28247e-16
-2.19551e-16
-2.14499e-16
-2.27187e-16
-2.17391e-16
-2.22782e-16
-2.13118e-16
-2.17832e-16
-2.26055e-16
-2.17619e-16
-2.17267e-16
-2.24875e-16
-2.17228e-16
-2.30063e-16
-2.21467e-16
-2.32481e-16
-2.22626e-16
-2.26861e-16
-2.22919e-16
-2.24694e-16
-2.05343e-16
-2.19238e-16
-2.17436e-16
-2.21945e-16
-2.24833e-16
-2.12078e-16
-2.17533e-16
-2.13712e-16
-2.2361e-16
-2.2503e-16
-2.14354e-16
-2.16631e-16
-2.23452e-16
-2.1956e-16
-2.17224e-16
-2.25249e-16
-2.39412e-16
-2.24091e-16
-2.22975e-16
-2.15389e-16
-2.21686e-16
-2.18641e-16
-2.23684e-16
-2.24987e-16
-2.2613e-16
-2.26641e-16
-2.16292e-16
-2.35721e-16
-2.19669e-16
-2.1002e-16
-2.15357e-16
-2.28141e-16
-2.3302e-16
-2.23488e-16
-2.21391e-16
-2.20217e-16
-2.19716e-16
-2.18996e-16
-2.25316e-16
-2.20263e-16
-2.14716e-16
-2.16684e-16
-2.10582e-16
-2.24203e-16
-2.1423e-16
-2.19887e-16
-2.32098e-16
-2.11589e-16
-2.22554e-16
-2.27132e-16
-2.26881e-16
-2.18754e-16
-2.17494e-16
-2.30698e-16
-2.27645e-16
-2.12024e-16
-2.28699e-16
-2.29876e-16
-2.23302e-16
-2.22146e-16
-2.22204e-16
-2.19575e-16
-2.20979e-16
-2.21272e-16
-2.18054e-16
-2.20728e-16
-2.11907e-16
-2.19677e-16
-2.17257e-16
-2.19192e-16
-2.21149e-16
-2.32632e-16
-2.10575e-16
-2.21265e-16
-2.21795e-16
-2.1285e-16
-2.19947e-16
-2.24884e-16
-2.28057e-16
-2.28449e-16
-2.1565e-16
-4.05495e-16
-4.20507e-16
-4.27151e-16
-4.01434e-16
-4.14931e-16
-4.05651e-16
-4.30719e-16