# vtk DataFile Version 1.0
Net Charge Density
ASCII
DATASET STRUCTURED_POINTS
DIMENSIONS 256 128 1
ORIGIN 0 0 0
SPACING 0.15625 0.15625 1
POINT_DATA 32768
SCALARS rhonet float
LOOKUP_TABLE default
4.02185e-05
-0.000199869
4.49386e-06
5.6755e-05
-7.14394e-06
0.000212125
-4.75331e-05
-0.0001344
5.76747e-05
7.07973e-05
-7.83759e-05
0.000311521
7.19982e-05
-0.00014583
-0.00016151
0.000182712
5.74108e-05
-0.000104586
-2.20711e-05
-7.51266e-05
-6.4957e-05
6.89162e-05
-8.03556e-05
7.54189e-05
9.68762e-06
-5.61109e-05
6.47514e-05
7.52051e-05
7.72362e-05
4.18612e-05
-0.000165491
-5.49181e-05
0.000148929
5.72837e-05
2.43537e-05
8.70398e-05
3.79293e-05
-0.00014601
-7.40157e-06
-4.91797e-05
0.000129322
-0.000131691
5.43655e-05
0.000125451
-3.76785e-05
2.62931e-05
-4.50109e-05
6.97111e-05
-2.75109e-05
-4.92323e-05
1.68666e-05
-0.000164013
9.3814e-05
0.000103906
-0.000118367
6.10284e-06
4.49176e-05
3.35206e-05
-1.43056e-05
-1.15627e-05
-0.000261791
0.00018667
4.65448e-05
-0.000170631
-0.000108019
3.50823e-05
5.24657e-05
0.000123844
0.000105611
-0.000118243
-8.51671e-05
7.82434e-05
-0.000196577
0.000222019
5.33992e-05
-0.000127054
-1.49477e-05
9.27973e-05
-6.58415e-05
-8.59457e-05
-8.14251e-05
-0.000123999
0.000179604
5.63856e-05
1.8555e-05
-0.000100947
0.000117536
-0.00023827
0.000106845
0.00012589
-7.27302e-05
-7.34383e-05
-1.39317e-05
-4.33614e-05
5.01012e-05
0.000108269
-0.00013963
0.000145059
-0.000320246
0.000143106
5.65341e-05
-8.86507e-05
2.14707e-05
8.16875e-05
-4.74202e-05
9.85442e-05
-9.38901e-05
-1.82578e-05
4.21449e-05
-0.000140087
6.52764e-06
0.000227831
-7.94285e-05
-0.000100587
-0.000139811
-3.15947e-05
0.000180449
6.31632e-05
-4.7321e-05
-7.76774e-05
-2.77919e-05
-7.18369e-05
8.07642e-05
3.99146e-05
3.44453e-05
-2.90142e-05
-3.44904e-06
-8.1918e-05
7.98081e-05
-3.03945e-05
-8.73231e-07
4.40925e-05
2.39981e-05
-5.79563e-05
-3.05602e-05
3.42873e-05
0.000157589
-5.93987e-05
6.249e-05
-0.000354411
4.50548e-05
0.000247618
-4.99836e-05
7.61487e-05
-0.000135766
-8.33182e-05
0.000126106
-2.21699e-05
-6.4949e-05
0.000135053
-0.000176165
-1.90127e-05
0.000116974
-6.91193e-06
-1.30173e-05
-8.87518e-05
8.31551e-05
-3.99721e-05
4.62472e-06
8.01543e-06
3.00693e-05
6.95119e-05
-0.000110467
1.64413e-05
8.54705e-05
-7.16982e-05
2.70378e-05
9.57525e-05
-5.42242e-05
-0.000111993
2.29347e-05
3.63168e-05
1.02808e-05
-3.62685e-05
-4.71774e-05
4.99269e-05
0.000138762
-0.000101373
-2.00493e-05
-0.000180329
0.000136814
0.00020013
9.3428e-06
-2.28607e-05
-0.000101855
-6.55465e-06
-5.41473e-05
-7.99308e-05
5.05898e-05
3.14865e-05
5.14367e-05
8.82715e-05
2.03003e-05
-5.17408e-05
-0.000104887
0.000215737
3.28228e-05
-7.50098e-05
-8.20921e-05
-3.74742e-05
6.63267e-05
-2.17059e-05
0.000118766
2.78939e-05
-1.12703e-05
-1.19094e-05
1.30082e-06
-4.87454e-06
-0.00015465
0.000149376
4.68534e-05
-0.000165379
0.00016314
5.71625e-05
-2.1486e-05
-3.07494e-05
-3.09666e-05
-8.46863e-05
3.76999e-06
7.77196e-05
-8.66721e-05
-9.71591e-05
0.000185765
-4.06826e-05
-7.78998e-05
7.31766e-05
1.26841e-05
2.28267e-05
-0.000122653
4.3547e-05
0.000120518
-6.80485e-05
-5.03361e-05
7.47328e-05
-2.66118e-05
-0.000136924
9.30359e-05
-4.69349e-05
0.000147816
0.000161298
-0.00012164
-0.00012424
0.000161057
-4.82497e-05
-5.52402e-06
-3.71241e-05
6.23809e-05
-0.000104427
5.79215e-05
4.05418e-05
2.87807e-05
-0.000183377
7.14432e-05
1.35864e-05
-0.000182153
7.25969e-05
-5.07474e-05
-3.01693e-05
-7.98933e-05
-1.02264e-05
7.95231e-05
-7.34904e-05
-0.000126661
-2.08502e-05
0.000180406
-5.81235e-05
-3.3538e-05
0.000117201
-1.83742e-05
-8.12112e-05
-0.000193059
3.01487e-05
9.80892e-05
-6.34661e-05
3.43685e-05
0.000116922
4.1281e-05
-0.000100905
4.81482e-06
-5.06209e-05
8.96701e-06
-0.000105333
0.000124193
-5.52982e-05
4.93613e-05
2.48339e-05
-7.99929e-05
6.39681e-05
-4.07187e-05
2.87135e-05
2.53122e-05
-1.32746e-05
5.32462e-05
-4.57584e-05
-2.56156e-05
5.80307e-06
2.79653e-06
9.952e-06
-7.45084e-05
-1.74205e-05
-9.27399e-06
-9.06036e-05
1.93692e-05
1.78562e-05
2.16952e-06
8.98412e-05
-4.68642e-05
3.51206e-05
-7.81799e-06
5.62414e-05
-8.11357e-06
-0.000110665
1.40788e-05
9.22446e-05
-3.87757e-05
3.87615e-05
-6.26021e-05
-3.54422e-05
5.0595e-05
7.53512e-05
-0.000151651
0.000151539
8.25338e-06
-4.75104e-05
-6.00587e-07
1.24804e-05
0.000123283
-0.00018615
8.79331e-06
2.89154e-05
5.32236e-05
0.000103425
-2.90731e-05
-3.89252e-05
4.86291e-05
-4.42518e-06
-8.13522e-05
-3.80068e-05
8.84887e-05
2.14429e-05
4.96465e-06
-1.41733e-05
1.79872e-05
-0.000108207
6.16172e-05
5.82008e-05
8.50367e-06
-5.99914e-05
2.29003e-05
6.75111e-05
-2.6781e-05
1.83564e-05
-9.11904e-06
6.2492e-05
-7.50062e-05
0.000169709
-7.0211e-05
-0.000140921
-3.29165e-05
0.000101755
-4.53461e-06
9.23006e-05
-6.27463e-05
7.351e-05
1.09293e-05
-0.000203263
0.000115025
5.18279e-05
-5.67771e-05
5.84079e-05
2.19734e-05
-6.25278e-06
2.8605e-05
4.37854e-05
4.93983e-05
-0.000106178
-6.96986e-05
-3.4472e-05
7.61601e-06
1.87303e-05
-3.82423e-05
0.000112725
2.05352e-05
-6.25025e-05
4.21985e-05
-6.2065e-05
-8.0458e-05
0.000187067
2.90223e-06
-9.28971e-05
9.98853e-05
-3.12701e-05
-7.15973e-05
-6.51763e-05
6.83113e-05
-0.000132047
0.000136
6.91682e-06
2.26243e-05
1.88532e-05
-0.000157183
-1.93787e-05
0.000147549
-5.86498e-05
7.72993e-05
6.47005e-05
-8.84547e-05
-8.27789e-05
4.84402e-05
5.87781e-07
-5.5189e-05
-6.82616e-05
9.61712e-05
-7.02695e-05
-9.47423e-06
-3.14442e-05
9.44042e-05
-5.25295e-05
6.954e-05
8.65345e-05
5.47594e-06
-0.000133805
3.24645e-05
6.35789e-05
4.79699e-05
-0.00010314
-4.4225e-06
0.000131523
-2.29543e-05
3.42852e-05
-1.44565e-05
-8.10237e-05
6.60783e-05
-4.23624e-05
-6.51034e-05
4.28085e-05
4.06755e-06
1.85084e-05
-1.86373e-05
-0.000116644
-1.8439e-06
-3.03029e-06
7.68292e-05
-4.14553e-05
1.0547e-05
1.54672e-05
-0.000114045
5.57683e-05
5.22505e-05
1.24099e-06
-7.83836e-05
8.30939e-05
5.30339e-05
-0.000172861
2.73343e-07
3.87856e-05
4.47509e-05
1.35002e-05
-8.21671e-06
-4.21291e-05
4.61346e-05
-8.35087e-05
-2.33613e-05
9.44786e-05
-7.54934e-05
0.000102657
-0.000169811
-1.1706e-05
9.56877e-05
5.04215e-05
-2.71504e-05
-2.94256e-05
7.6581e-05
-2.06876e-05
-0.000158638
9.51047e-05
5.51331e-06
-8.32753e-05
3.34817e-05
8.11452e-05
-3.01336e-05
6.92717e-05
-1.81195e-05
8.25449e-05
-0.000278948
9.16818e-05
0.000104195
-9.03031e-05
-5.75138e-06
6.74532e-05
-8.61889e-05
-5.99679e-06
0.000166776
-5.16713e-05
-2.66904e-05
6.58794e-07
8.51688e-05
-1.41992e-05
-8.81128e-05
2.40655e-05
6.87607e-06
-5.25268e-05
0.000102588
-0.000109697
2.39909e-05
3.42212e-05
6.51756e-05
-5.8644e-05
-1.8737e-05
-4.9075e-05
4.54055e-05
6.68326e-05
1.11966e-05
2.25846e-05
3.92126e-05
-4.21897e-05
-0.000233754
-9.15492e-05
4.09994e-05
-2.44456e-05
4.08133e-05
-6.39517e-05
2.85777e-05
0.000152286
-0.000100261
7.21775e-06
4.29726e-05
-2.64107e-05
-2.77406e-06
0.000113227
-1.3113e-05
0.000185894
-5.73403e-05
-0.000149287
0.000194011
-0.000142019
2.44402e-05
-2.45929e-05
-0.000116404
3.72103e-05
1.15635e-05
-3.0335e-05
6.8118e-05
3.25162e-05
-0.000178623
0.000124752
1.17575e-05
-6.16729e-05
-6.64514e-05
0.000101873
5.31975e-05
-2.60448e-05
0.000181601
-6.99285e-05
4.03485e-05
-0.000136298
7.53941e-05
-0.000232804
1.22526e-05
7.23605e-05
-5.80337e-05
0.000128401
-9.96758e-05
4.57575e-05
-0.000125768
6.95859e-05
-3.33766e-05
-3.28297e-05
4.24954e-05
4.50893e-05
1.25263e-07
4.52878e-05
6.95898e-05
-0.00016691
3.85123e-05
0.000111175
-1.38462e-05
1.7486e-05
-6.76679e-05
8.96712e-06
-3.09134e-05
-0.000101986
-9.90019e-06
1.98653e-05
7.98011e-05
4.56686e-05
-0.000101933
3.82491e-05
-0.000156645
-3.29711e-06
8.50635e-05
9.78546e-05
-0.000113735
-7.81264e-05
2.97963e-05
5.45328e-05
-5.31174e-05
0.000153158
1.97467e-05
-7.49193e-05
-5.52355e-05
9.89367e-05
-7.17482e-05
-6.47242e-05
-2.96738e-05
9.29087e-06
-5.53237e-05
0.000166014
-7.47489e-05
-8.08144e-06
7.13918e-05
8.81799e-05
2.78043e-05
-9.92041e-05
-0.000102766
8.1383e-05
0.000109021
-7.65177e-05
-2.87301e-06
4.762e-05
7.00075e-06
-7.05465e-05
-4.73886e-05
-2.1462e-05
3.77148e-05
-1.65286e-05
7.32064e-05
-0.000104376
-3.764e-05
8.56107e-05
5.41526e-05
-1.71904e-05
0.000100267
-9.24505e-05
-5.63988e-05
2.69248e-05
9.835e-06
-3.85053e-05
-1.6327e-05
-1.24024e-05
-2.73876e-05
-6.91328e-05
0.000102175
3.32649e-05
5.69384e-05
-9.80385e-05
9.6526e-05
-7.42179e-05
-8.01653e-05
0.000122469
-9.71765e-06
-2.99595e-05
0.000168212
-0.000171137
-1.12355e-05
7.13473e-05
-0.000125437
7.10544e-05
9.11579e-05
-9.13816e-05
-3.69811e-05
1.64949e-05
-3.27914e-05
-2.35516e-05
6.36398e-05
-2.69922e-05
-8.01608e-05
0.000126507
4.79206e-05
-7.07858e-05
7.01766e-05
-8.41181e-05
-5.126e-06
-1.75054e-06
-4.3917e-05
2.66652e-05
-4.42824e-05
7.40809e-05
-1.96365e-05
-5.14067e-05
2.76946e-05
7.2788e-05
5.26591e-05
-3.01162e-05
-4.6852e-05
1.59114e-05
5.29003e-05
-7.99795e-05
2.4116e-05
-2.41457e-05
-5.049e-05
0.000186678
-0.000102408
9.76713e-06
-9.69798e-06
-1.79354e-05
2.48685e-05
6.63323e-05
-3.6099e-05
4.48548e-05
-0.000112639
4.96432e-05
-6.7624e-05
8.44161e-05
7.6153e-05
-6.6153e-05
2.87583e-05
-6.76052e-05
4.50363e-05
-3.09406e-05
-2.51894e-05
-7.19435e-05
-2.13566e-05
7.71048e-05
2.17812e-05
-4.59315e-05
4.32595e-05
-6.26554e-05
0.000118745
-0.000100671
1.98104e-06
0.000117461
-4.20993e-06
-7.13525e-05
6.71591e-05
0.000126685
-0.000120715
-9.16631e-06
-3.39786e-05
2.33292e-05
-1.72907e-05
1.1126e-05
6.57224e-05
-8.36171e-05
7.31756e-05
-1.388e-05
-5.20947e-06
-1.84309e-05
7.67286e-05
-1.24841e-05
-5.62127e-05
-6.61394e-05
5.04059e-05
2.90673e-05
-4.72539e-05
2.77394e-05
-3.35232e-05
-4.48225e-05
2.38854e-05
4.5741e-05
8.83702e-05
-6.23805e-05
2.72661e-05
-0.00010408
-5.35371e-05
0.000101656
-1.39154e-05
-5.79945e-05
5.73728e-05
1.53687e-05
5.04793e-05
-5.54151e-05
5.72344e-06
8.15723e-05
4.69717e-05
-8.07918e-05
-0.000118917
0.000157165
-0.000124242
7.93699e-05
8.82953e-05
-1.78465e-05
-3.20758e-05
-6.06643e-05
0.00021754
-3.00751e-05
-0.000125438
-6.86222e-06
6.65941e-05
0.000103414
-0.000165437
-0.000118884
8.37811e-05
2.81769e-05
4.00927e-05
6.55837e-06
-8.55881e-05
0.000186046
-7.44542e-05
-8.81017e-05
-1.34989e-05
-6.67713e-05
0.000106159
6.19737e-06
2.04636e-05
-5.42158e-05
0.000129635
-2.4041e-05
1.40463e-05
3.26412e-05
-6.63917e-05
9.36569e-05
6.4736e-05
-0.000120104
5.81644e-05
2.9311e-05
-5.35396e-05
-9.93857e-05
-3.94143e-05
4.89198e-05
-2.60926e-05
1.89024e-05
3.74932e-05
7.60125e-05
7.69643e-05
-0.000127853
5.18876e-05
-3.18396e-06
-1.9521e-05
-3.91884e-05
7.34031e-05
6.30657e-06
0.00011675
-4.26017e-05
-0.00010338
-2.40544e-05
-3.07269e-05
9.34157e-05
3.63871e-05
-3.29172e-05
-0.00011632
4.85965e-05
4.6403e-05
0.000110557
-0.000163275
8.7495e-05
3.24711e-05
-4.29556e-05
5.17206e-05
0.000105968
9.9569e-05
-0.000221225
-1.53611e-05
2.48228e-05
-3.09276e-05
4.33475e-05
-2.70645e-05
-6.49977e-05
5.99433e-05
-9.39283e-05
7.34436e-05
5.28784e-05
-3.0752e-05
4.1037e-05
-1.61823e-05
-0.000137864
-1.61831e-05
0.00012529
8.35833e-05
9.98052e-06
-9.96904e-05
5.67781e-06
-5.41017e-06
9.23345e-05
-6.03565e-05
-3.06986e-05
-1.77438e-05
-0.000126947
0.000168363
-1.53171e-05
-2.58277e-05
5.90525e-05
-8.75643e-05
3.2038e-05
0.000132299
-9.74998e-05
5.12917e-05
-6.47849e-05
6.07381e-05
-9.39531e-05
5.17772e-05
3.30429e-05
-0.000106789
2.98955e-06
-3.1915e-05
6.22181e-05
3.35468e-05
-0.000146279
1.30109e-05
0.000100358
-0.00010886
1.27591e-05
3.89835e-05
-0.000126276
0.000128824
1.80078e-05
1.55086e-05
3.54958e-05
-3.20794e-05
-5.14655e-05
8.90992e-05
-4.7711e-05
3.0145e-05
-1.54203e-05
-7.05526e-05
7.18057e-05
1.85742e-05
-4.45392e-05
2.77584e-05
1.75898e-05
1.71431e-05
-6.7018e-06
-8.0149e-05
9.3719e-06
7.16959e-05
-5.90038e-05
9.19069e-05
-4.37816e-05
-1.05365e-05
-2.57231e-06
-8.27909e-05
-3.58096e-05
2.39101e-05
5.01e-05
6.20374e-05
-0.000107475
0.000111496
8.47448e-05
-5.19436e-05
7.14948e-05
-1.2191e-06
-9.81591e-06
-7.96844e-05
2.0843e-06
-0.000112629
-9.50554e-06
9.56715e-05
2.00968e-05
-3.2519e-05
6.79061e-05
-0.000115542
-5.60016e-06
7.72077e-05
-2.51653e-05
6.62374e-05
8.43196e-06
-7.66199e-06
0.000106023
-2.91809e-05
-7.3341e-05
-0.000119589
2.67335e-05
2.79777e-05
-5.67671e-05
-5.18432e-06
5.59815e-05
8.73047e-05
-5.45627e-05
-5.99888e-07
5.33601e-05
-6.82098e-05
-2.32074e-06
5.78477e-05
1.15517e-05
0.000126379
-8.46791e-05
-0.000116506
-4.87795e-05
8.29636e-05
-6.7302e-06
-4.49703e-05
-2.44289e-05
0.000155294
-5.289e-05
-6.69794e-05
-6.00551e-05
9.11467e-05
-1.06778e-05
3.06787e-05
-4.97811e-05
2.62953e-05
0.000114525
-0.000156931
-2.00893e-05
-3.73978e-05
0.000207799
-2.06006e-05
-0.000106123
6.57949e-05
6.48124e-05
1.23167e-06
-2.84584e-05
-9.41171e-06
-0.000125028
8.79338e-05
-5.90895e-05
-4.55551e-05
-8.80228e-06
2.63164e-05
8.56991e-06
1.09422e-05
-8.88808e-06
-6.20704e-05
-5.82456e-05
0.000167862
-2.99816e-06
-7.01728e-05
1.13647e-05
4.29102e-05
-6.66745e-05
0.000109978
4.15146e-05
-9.16168e-05
3.1368e-05
6.2492e-05
-5.68323e-05
-7.03133e-05
7.47336e-05
-1.15769e-05
-1.29717e-05
0.000111057
-0.000156722
-9.9563e-06
5.05608e-05
-6.14359e-06
3.00915e-05
5.23916e-05
6.11951e-05
0.000103935
-6.53418e-05
5.58506e-05
-0.000115491
1.66922e-05
3.17232e-05
7.94829e-05
-0.000197293
-5.79604e-05
8.26663e-05
6.95507e-05
-4.1225e-05
-2.48884e-05
-0.000153924
-5.69961e-05
0.00015848
3.64818e-05
-7.13858e-05
6.16419e-07
-3.70286e-05
6.62631e-05
0.000102697
-6.36241e-05
-2.79883e-05
4.01427e-05
-0.000128429
1.13626e-05
-5.18842e-05
0.000159335
-5.3585e-05
9.21405e-05
-6.73893e-05
-8.3909e-05
6.53178e-05
-1.69842e-05
0.000109896
-7.06869e-05
1.30865e-05
-7.33257e-05
9.43119e-05
2.37125e-05
9.70475e-05
-0.000151646
-9.82158e-05
0.000101839
-0.000117122
7.82072e-05
-6.7742e-05
6.8874e-05
2.74398e-05
-4.51864e-05
-1.37902e-05
4.91238e-05
1.59956e-05
-4.1908e-05
-7.39616e-05
7.1913e-05
-7.97707e-05
-7.97395e-05
2.9759e-05
7.98224e-05
0.000159903
-0.000120024
0.000117014
-3.10882e-05
-6.29519e-05
-1.6421e-05
-1.76098e-05
0.000219608
-0.000144501
7.29768e-05
-1.70809e-05
1.00201e-05
-7.48857e-05
-6.79056e-05
6.99401e-05
-7.76774e-05
-1.87204e-05
1.62317e-05
0.000164578
-0.000133732
-2.35596e-05
7.56963e-05
-0.000173551
7.65629e-05
9.94672e-05
-3.72329e-05
2.10854e-05
-4.54555e-05
-6.71493e-05
4.56905e-05
6.96743e-05
-0.000127287
4.27131e-05
3.26798e-05
-7.2444e-05
-5.74471e-05
0.000104372
1.56497e-06
5.94708e-06
-9.99438e-05
0.000136558
1.21641e-05
5.69288e-05
-9.93708e-05
4.92613e-05
-5.26884e-05
-4.53924e-05
4.88157e-05
-2.75976e-05
0.000110323
-7.90185e-05
-4.00182e-05
8.38523e-05
8.93727e-05
-0.00013675
9.27574e-06
0.000121921
-0.000140103
3.20313e-05
6.51241e-05
1.22851e-05
9.94653e-06
-6.19072e-05
4.76025e-05
5.39438e-05
3.87069e-05
-0.000192537
4.71589e-05
2.37967e-05
-0.000101107
-3.12945e-05
0.000107813
-4.37559e-06
5.93597e-05
-3.79821e-05
6.40766e-05
-3.44091e-05
-7.60139e-05
2.86985e-05
-3.96708e-06
-2.44922e-05
-6.97945e-05
6.05934e-05
-1.67631e-05
0.000109038
3.25067e-06
3.07928e-05
-5.5284e-05
5.38654e-06
1.21489e-05
-8.63477e-05
-1.24939e-05
2.27701e-05
-3.70282e-05
3.23351e-05
-3.13678e-05
-2.73681e-05
-1.01555e-05
8.13262e-05
8.01146e-05
-6.95809e-05
-0.000137817
6.01478e-05
9.43176e-05
-8.41357e-06
-3.57352e-05
3.93394e-05
2.55113e-06
-1.4263e-05
-2.67852e-05
2.11103e-05
-3.11102e-05
6.74352e-05
4.45256e-05
-3.44139e-05
-2.62781e-05
7.31379e-06
-7.96624e-05
-3.04787e-05
4.97625e-05
4.41391e-05
3.68514e-05
-2.6976e-05
-8.22424e-05
0.000126679
-9.08594e-05
8.90694e-06
3.5616e-05
1.81117e-05
8.13662e-05
-1.86986e-06
-6.14997e-05
-1.83284e-06
2.63e-05
8.48318e-07
3.55125e-06
3.29314e-05
-0.000128143
-3.024e-06
6.08918e-05
-7.45306e-05
-1.26014e-05
9.58816e-05
9.62738e-05
-0.0001011
4.69061e-05
-8.29072e-05
8.54912e-05
-6.74198e-05
-3.35983e-05
5.715e-05
-2.45158e-05
0.00010862
-1.90511e-05
-1.35049e-05
-1.0986e-05
-9.47348e-05
-7.82846e-06
-2.576e-05
1.75522e-05
1.68463e-05
7.81239e-05
3.28614e-05
-0.000116162
9.64636e-05
-4.46331e-05
-0.000102771
4.18747e-05
8.74207e-05
-6.1315e-05
7.2807e-05
-8.36629e-05
2.05908e-05
-1.51539e-05
5.39201e-06
7.40129e-05
-8.12679e-05
-5.43783e-05
0.00010433
4.06946e-05
-0.000133915
5.2352e-07
4.25224e-05
-8.19488e-05
7.09132e-05
-8.16139e-05
7.94233e-05
6.14568e-05
-0.000127068
5.81135e-05
-2.67695e-05
-2.05196e-05
-5.66582e-06
1.0486e-05
-1.24743e-05
9.08389e-07
0.000145834
0.000113408
-4.34788e-06
7.00834e-05
8.34685e-05
0.00019223
-0.000105629
1.2985e-05
-4.8988e-05
-5.51764e-05
-2.40159e-05
-0.000100047
1.53051e-05
0.000116714
6.99761e-05
-3.81084e-05
5.85676e-05
2.94514e-05
2.36284e-05
-5.27683e-05
-3.12376e-05
-3.44788e-05
2.18099e-05
-5.92397e-05
-0.000114412
0.000168336
1.32193e-05
3.78473e-05
-3.625e-05
3.32936e-05
-1.45296e-05
5.72244e-05
1.63817e-05
-9.0574e-05
9.85456e-06
-1.69224e-05
7.32716e-05
-6.50738e-05
-3.23186e-05
7.91438e-06
4.67016e-05
8.94989e-05
3.78074e-05
-2.05962e-06
8.15641e-06
4.54814e-05
-7.56268e-05
4.7411e-05
-9.27628e-05
6.05098e-05
3.06835e-05
-5.56124e-05
8.24141e-05
-1.47213e-05
3.65146e-05
6.14092e-05
-0.000155565
-6.45989e-05
7.44986e-05
0.000109058
0.000137869
-0.00013711
4.43306e-05
-6.52306e-05
9.40519e-07
8.76749e-05
-6.99445e-05
6.34327e-05
3.88105e-06
8.77029e-05
6.98469e-06
6.06478e-05
6.92016e-05
-5.40933e-05
5.46102e-05
-7.9442e-05
-8.62614e-06
2.5382e-05
0.000112736
-0.00012341
6.9347e-05
5.95488e-06
-0.000161197
5.35226e-05
0.000173446
-9.26591e-05
6.71932e-05
-9.29268e-05
-0.000111784
-2.68377e-05
0.000180991
6.89819e-06
-9.2315e-06
-5.28882e-05
6.27075e-05
1.30172e-05
-0.000130053
9.90176e-05
3.13058e-05
-8.78475e-05
3.93087e-05
-1.48388e-05
3.74982e-05
-4.78346e-05
1.86919e-05
-0.000158046
0.000106618
7.2404e-05
-3.32913e-06
-3.00178e-05
-8.512e-05
-5.54259e-05
9.56478e-05
2.10167e-05
-0.000100415
0.000111536
2.74949e-05
-6.59958e-07
2.44491e-05
-7.97322e-05
4.20227e-05
-2.77883e-06
9.51347e-05
-5.36669e-05
2.85164e-05
-5.3502e-05
-5.38217e-05
4.23091e-05
9.96978e-05
-4.79934e-06
-7.50789e-05
3.31807e-05
-3.79197e-05
-0.000102005
-2.67196e-05
0.000147771
-5.26778e-05
-3.34677e-05
9.47402e-05
4.18397e-07
-8.58447e-05
-5.58323e-05
6.75952e-05
1.83589e-05
0.000122025
-5.49513e-05
3.34772e-05
-7.20983e-06
-4.85801e-05
-2.96858e-05
1.37419e-05
0.000123768
-0.000137531
-6.52415e-05
5.73841e-05
7.82153e-05
-0.000155168
8.12497e-06
6.33936e-05
5.07637e-05
9.91768e-05
-1.4704e-05
-1.87046e-05
-5.2891e-05
-5.402e-05
-4.89189e-06
-3.1265e-05
1.42355e-05
1.87211e-05
9.90876e-05
-5.35558e-05
-4.82007e-05
-2.78228e-05
-2.01421e-05
-1.70935e-05
0.000128289
5.31317e-05
-5.57574e-05
-0.00013583
2.49709e-05
3.33183e-05
-2.42114e-05
-0.000110364
-8.02866e-05
9.0039e-05
0.000162386
-6.02733e-05
3.67058e-06
6.24363e-05
-5.72329e-05
0.000128641
-6.91233e-05
-9.77194e-05
1.70942e-05
3.02742e-05
-7.32578e-05
9.92604e-05
-3.32001e-05
5.44076e-05
-7.50984e-05
-4.50062e-07
2.04623e-06
-1.76937e-05
0.000108293
-7.27572e-06
-0.000102931
2.94497e-05
3.55962e-05
-2.91526e-05
-5.69503e-05
7.49661e-05
2.8475e-05
-0.000102314
7.53517e-05
-7.93157e-05
7.13198e-05
-1.18441e-06
-8.55781e-06
3.97201e-05
-9.6853e-05
-4.30592e-05
-3.69814e-05
0.000207649
-9.29555e-05
0.000115243
-7.36152e-05
-9.31612e-05
1.42064e-05
6.64943e-05
2.58989e-05
4.35015e-05
-6.58922e-06
-1.23943e-05
-6.6009e-05
-7.92987e-05
0.000115359
-6.10955e-05
-9.53104e-06
7.7928e-05
-2.42804e-05
7.15937e-05
-4.94408e-05
8.14594e-05
-2.29699e-05
5.4193e-05
-7.77629e-05
1.29753e-05
-3.98487e-05
-6.08845e-05
7.64849e-07
2.28309e-05
-1.36672e-05
0.000112956
9.15995e-05
-0.000133469
-0.000115704
7.08678e-06
5.02949e-05
1.63778e-05
-4.52265e-05
0.000119847
-3.2515e-05
-0.000181405
2.01947e-05
-0.000109359
0.000114069
7.24745e-05
-0.000148203
0.000127603
9.05537e-06
-1.27759e-05
9.386e-05
-0.000161496
2.81965e-05
7.39798e-05
3.45721e-05
-9.27255e-05
0.000126793
-5.50434e-05
8.74919e-06
2.08523e-05
2.20647e-05
-4.37433e-05
-5.22835e-05
3.86392e-05
1.86648e-05
4.89349e-05
-3.97951e-05
-8.96397e-05
6.52885e-05
-0.000149537
2.26311e-06
1.94735e-05
-6.74177e-05
7.82143e-05
0.000128751
-0.000316511
2.8672e-05
-7.33417e-09
0.000144368
-0.000113936
-3.7885e-05
1.1493e-05
-0.000136936
7.90122e-06
9.84388e-05
5.58851e-05
4.19383e-05
6.95789e-05
1.83971e-05
1.37486e-07
-0.000135851
-9.50329e-05
-4.75558e-05
-0.000117311
4.39585e-05
9.64169e-05
1.61203e-05
-5.11957e-05
1.25472e-05
8.09564e-06
-4.50866e-05
-5.69311e-05
4.79398e-05
-1.27942e-05
1.13186e-05
-4.66721e-05
-0.000107904
2.43079e-05
4.98623e-05
-1.55509e-05
9.56934e-08
-3.62424e-05
3.04457e-05
-4.96118e-05
2.94901e-05
8.02352e-05
-1.91557e-05
-1.87184e-05
8.01415e-06
-1.7505e-05
5.28896e-05
-3.0017e-05
7.07107e-06
-0.000118047
-3.92739e-06
0.000177762
-1.43144e-06
2.04723e-05
-7.06817e-05
-7.17875e-06
-3.12072e-05
7.29314e-05
-2.08986e-05
7.60229e-05
-6.63545e-05
5.09107e-06
5.99492e-05
3.71132e-06
8.84689e-05
-0.000105569
-9.88513e-05
9.72197e-05
2.0565e-05
-7.48038e-06
-2.12768e-05
-6.65474e-05
6.92861e-05
4.66099e-05
-0.000139989
-7.09912e-05
0.000143267
-1.89678e-05
-8.4653e-05
9.36794e-06
1.56154e-05
8.42609e-05
-4.09189e-05
8.19624e-05
1.08189e-05
-4.92821e-06
-3.54288e-05
1.05402e-05
-3.94275e-06
6.46259e-05
-0.000111687
-0.000144788
8.09368e-05
7.6124e-05
8.00425e-06
-5.84032e-06
-6.13825e-05
-1.91837e-05
4.25405e-05
-2.49036e-06
-1.7349e-05
-9.06147e-05
0.000103267
0.00012622
-6.86529e-05
-2.06149e-05
5.05862e-05
-7.16096e-05
0.000135817
-5.15711e-05
-3.33299e-05
-4.67051e-05
2.73676e-05
-5.04451e-06
2.76603e-06
3.59288e-05
-8.48994e-05
-7.44609e-05
2.35797e-05
8.60253e-05
-5.94383e-05
1.71e-05
-5.2292e-05
2.56989e-05
-8.30228e-06
-6.81002e-05
9.8262e-05
3.69104e-05
-5.95703e-05
3.71154e-05
7.96572e-05
-0.000111949
-1.02496e-05
7.04336e-06
5.44742e-06
1.12565e-05
9.19355e-05
-5.84607e-05
-6.50001e-05
-8.12832e-05
9.34363e-05
3.72482e-05
5.11904e-05
-6.65763e-05
9.0146e-05
-0.000168457
-1.86786e-05
0.00010312
3.77093e-06
3.7616e-05
-0.000132345
-1.23051e-07
8.23106e-05
5.92554e-07
1.0837e-05
-7.14532e-05
1.6531e-05
1.90842e-05
-2.13876e-05
1.92121e-05
7.74033e-05
1.90719e-05
-4.201e-05
7.21158e-05
-0.000139401
0.000127458
9.94676e-06
-8.13314e-05
1.2534e-05
-4.70926e-05
1.16485e-05
0.000125637
8.46669e-05
-5.79286e-05
-6.44515e-05
-1.88507e-05
-3.89274e-05
0.000132271
5.92112e-06
-6.77026e-05
2.33119e-05
-9.35952e-05
-2.39665e-05
0.000152453
-5.41002e-05
2.37757e-05
9.60482e-05
-6.06856e-05
-9.52283e-05
0.000106521
8.59832e-06
-5.43337e-05
-9.93098e-05
4.39803e-05
-4.74611e-05
4.45924e-05
3.09476e-05
-5.72756e-05
4.54697e-05
1.69885e-05
-0.000116587
-5.12309e-06
5.49471e-05
4.23342e-05
9.85039e-05
-2.96042e-05
-6.85917e-05
-2.22307e-06
2.00827e-05
2.42274e-05
-3.86686e-05
2.05747e-05
-5.89528e-05
6.52552e-05
-2.16917e-06
3.04251e-05
9.13416e-05
-0.000106093
-5.31555e-05
-4.44017e-05
-2.21739e-05
-2.45485e-05
-4.96777e-05
0.000117763
-3.19903e-05
-7.18797e-05
-5.85043e-05
-1.30991e-05
2.98403e-05
0.000132735
-0.000215019
2.03579e-05
-0.000108581
9.12208e-05
-3.10456e-06
-1.76327e-05
4.85592e-05
-4.55948e-05
-4.52269e-05
-2.94674e-05
-4.86372e-05
-1.92258e-05
1.48517e-05
-3.36141e-05
0.000218947
-5.91548e-05
-3.20766e-05
9.69847e-05
-7.52175e-05
-2.7701e-05
2.36069e-05
2.3766e-05
-1.88737e-05
-6.76116e-05
0.000113696
0.000124645
-5.80912e-05
-0.000171915
-6.70034e-05
0.000225492
8.14426e-05
-0.00012274
-4.33079e-05
8.80728e-06
5.53146e-05
9.01143e-05
-3.75864e-05
-9.46673e-05
-7.76072e-05
-5.56139e-05
1.43824e-05
0.000104134
-4.78922e-05
3.23607e-05
-8.65172e-05
-1.63089e-05
0.000105233
1.65883e-05
-5.65521e-05
0.000125767
-6.12718e-05
-3.24522e-05
-9.3087e-05
-6.61692e-05
9.69899e-05
-3.12366e-05
-2.33591e-05
4.86802e-05
-3.16406e-05
-9.96452e-05
0.000156167
2.99632e-05
1.71395e-05
-5.22307e-05
-0.000178206
0.000120789
3.21732e-05
8.20742e-05
-1.82304e-05
-1.7432e-06
-3.98022e-05
-0.000154929
-4.93616e-05
8.77855e-05
0.00015657
-4.18043e-05
-5.53232e-05
1.96556e-06
1.37226e-05
0.000194089
-0.000156103
-6.8043e-05
-6.28859e-05
2.74724e-05
6.6106e-05
-0.00010507
3.38943e-06
-3.22977e-05
0.000102271
-1.15552e-05
-1.67621e-05
-5.7125e-07
-7.86294e-05
-1.49612e-05
3.1171e-05
-3.73537e-05
9.54146e-05
0.000112936
-0.000108141
-7.36307e-05
2.18408e-05
-4.10541e-05
-2.87937e-05
9.16539e-05
6.72048e-05
-5.62153e-05
5.50027e-06
9.21158e-05
-0.00015101
0.000123789
-8.39122e-07
-5.86135e-05
-9.57665e-05
0.000122848
2.66915e-05
-7.17016e-05
2.77149e-05
-1.08329e-05
-4.46778e-05
6.76612e-05
-3.38273e-05
4.97021e-05
-2.3553e-05
1.32713e-06
-6.61556e-05
7.61345e-05
2.93035e-05
-5.39992e-05
-6.19405e-05
7.90451e-05
4.44211e-05
-1.64541e-05
7.79866e-06
-8.05466e-05
0.000114866
-8.30934e-05
2.83268e-05
-5.86392e-05
7.9392e-05
-4.60584e-05
-5.13467e-05
6.9581e-05
4.03922e-05
-6.28722e-05
-9.40444e-05
5.92517e-05
7.98772e-06
4.3262e-05
-8.22165e-05
1.58142e-05
-4.35463e-05
0.000149291
2.71786e-05
-3.3796e-05
-3.82698e-05
8.34656e-05
4.45859e-05
-0.000142207
-3.14547e-05
-0.000106904
0.000177421
7.49493e-05
-4.41842e-05
-1.65845e-05
-0.000201855
0.000135247
6.87094e-05
1.02061e-06
6.28643e-06
1.78557e-05
-2.24614e-05
-7.57095e-05
2.18512e-06
-2.40138e-05
-4.0378e-05
3.2282e-06
6.07466e-05
-2.7789e-05
8.43045e-05
3.97859e-05
-5.97001e-05
-5.92008e-05
-3.7275e-05
-7.14776e-05
-2.95705e-05
0.000121983
4.51591e-05
-5.12798e-05
7.7093e-05
-7.48225e-05
3.81616e-05
0.000151802
-6.74821e-05
-0.000123908
-3.36581e-05
-9.71616e-05
4.76413e-05
9.52014e-05
-5.1908e-05
-7.86459e-05
0.000100806
5.22493e-05
-6.09538e-05
0.000115427
-8.37315e-05
-1.56425e-05
9.36387e-05
-3.89465e-05
-2.6863e-05
-0.000124847
5.10939e-05
3.78417e-05
3.38291e-05
4.85103e-06
7.05926e-05
-2.57855e-05
-7.07643e-05
5.41494e-05
-0.000104597
8.19901e-06
6.90271e-05
3.63921e-05
-5.27783e-05
1.53309e-05
-6.7204e-05
-2.53133e-06
-1.36978e-05
-1.94722e-05
2.92754e-05
-6.64266e-07
3.41177e-05
-0.000124749
6.93579e-05
0.000119323
-3.73968e-05
3.1007e-05
5.82758e-05
-2.97031e-05
-3.39169e-05
-4.7565e-06
1.90147e-05
-8.88376e-05
8.45175e-05
-7.19198e-05
8.73168e-05
6.67106e-06
8.43499e-05
-0.000115988
-2.36442e-05
2.91496e-05
-8.53244e-05
-0.000141688
7.81193e-06
7.23735e-05
5.06695e-05
-3.74737e-05
-4.61963e-05
-7.13165e-05
2.10704e-05
0.00013133
2.91948e-05
2.43837e-05
7.11117e-05
-7.78178e-05
1.15255e-05
-1.04432e-05
1.59846e-05
-6.04336e-05
5.17074e-05
-2.55299e-06
6.15289e-05
-5.57746e-06
1.20623e-05
-3.62311e-05
6.0536e-09
-9.54373e-06
1.52222e-05
6.94908e-05
-0.000124274
-0.000128732
0.000139388
-1.79789e-05
0.000125083
-3.7295e-05
-1.48697e-05
1.85601e-05
-5.92702e-05
4.61752e-05
1.55926e-05
0.000104488
-6.84339e-05
-9.95246e-05
4.29754e-05
8.62625e-05
-0.000149668
4.77396e-05
0.000170171
-1.66834e-05
-5.99432e-05
-1.28207e-05
-1.07009e-06
4.96024e-05
8.8471e-06
-7.11996e-07
3.7864e-05
-2.43643e-05
-9.93242e-05
0.000109852
1.3649e-05
1.24495e-05
-7.61201e-05
-5.02605e-05
2.34274e-06
6.45127e-05
-1.627e-05
4.58111e-05
-8.99076e-06
-0.000106913
0.000230543
9.01609e-05
-6.37131e-05
-4.93953e-05
2.19848e-05
5.03659e-05
-0.000100906
-3.19212e-05
8.36584e-06
-6.51762e-05
0.00010052
5.29233e-05
5.31956e-05
-2.67744e-05
4.75061e-05
-5.88954e-05
1.28837e-05
-8.65224e-05
0.000101207
-5.60298e-05
-8.94541e-05
8.01403e-06
0.00014822
-0.000166953
4.36176e-05
7.99475e-05
3.26989e-05
-9.4902e-05
0.00013091
2.22492e-05
-0.000169541
-1.7866e-05
-4.01123e-05
-7.61029e-05
0.000138929
0.000160316
-7.0315e-05
-9.19207e-05
3.52743e-05
-9.6765e-05
5.77276e-05
8.81986e-06
-1.4301e-05
-1.05386e-05
0.000150297
6.77712e-06
-0.000101842
6.51996e-06
3.97774e-05
-3.21408e-05
-8.02607e-05
0.000108868
-3.6728e-05
-6.7695e-05
8.04166e-05
-3.51859e-05
-7.81228e-05
1.88223e-05
-3.42354e-06
9.87754e-05
3.84215e-05
-6.65379e-05
-6.20529e-06
7.90957e-05
-2.28675e-05
-0.000139886
1.44143e-05
-2.02062e-06
-3.09746e-05
-7.19646e-05
0.000126541
-5.88567e-05
0.000137343
3.29843e-05
-6.18097e-05
-4.97964e-05
2.74555e-05
-2.24777e-05
7.03965e-05
6.46001e-05
-3.48616e-05
-5.5233e-05
-9.14424e-05
7.20269e-05
-2.38132e-05
2.07366e-05
6.92534e-05
2.34059e-05
-1.47198e-05
-1.21502e-05
-6.06319e-05
8.42783e-05
-0.000100732
6.84223e-05
1.69537e-05
-0.000106573
-6.40955e-05
8.82449e-05
5.72478e-05
4.78921e-06
-0.000101509
7.99415e-05
-5.88354e-05
6.92555e-05
7.90576e-06
-2.02979e-05
6.80916e-05
-8.36299e-05
9.79867e-05
6.05324e-05
-0.000111705
4.93461e-06
-9.04629e-05
0.000128488
-0.000106362
-2.71497e-05
0.000132846
1.50087e-05
-6.43166e-05
3.4282e-06
1.73594e-05
-0.000127215
2.31039e-05
0.000110387
6.51532e-05
-1.89391e-05
-8.02334e-05
-2.44956e-05
4.50816e-05
8.51068e-05
-1.31768e-05
-7.16718e-05
-4.07711e-05
8.76144e-05
6.24753e-05
2.04425e-07
-5.85454e-05
-0.000113493
0.000103547
2.69981e-05
3.39956e-05
1.05522e-05
-2.567e-05
3.58107e-05
-6.41332e-05
1.25412e-05
-3.31039e-06
-7.74785e-05
3.34173e-05
6.3755e-05
-9.1968e-05
4.80579e-05
4.03821e-06
-5.27245e-05
-8.79983e-07
-1.29859e-05
-8.13105e-05
-7.17053e-05
5.5284e-05
9.17646e-05
5.60482e-05
0.00010193
-0.000175329
0.00014717
-1.81114e-05
-4.61284e-06
-1.50339e-06
8.65583e-06
-7.2474e-05
1.65239e-05
8.15708e-05
-5.88666e-05
2.58542e-05
-3.41128e-05
-5.95171e-05
-3.5913e-05
-7.5036e-05
-4.26181e-05
0.000161666
-1.68518e-05
-4.83124e-06
-4.46014e-05
-6.01434e-05
-7.48422e-05
3.88542e-05
-0.000109829
0.000176519
8.32527e-05
4.01075e-05
5.07606e-05
-4.70418e-05
0.000155252
-1.89892e-05
-4.145e-05
4.05671e-05
3.81971e-05
2.49973e-05
2.30842e-05
-6.96247e-05
0.000114616
-3.2477e-05
7.18026e-06
5.45988e-06
6.75814e-05
-6.88864e-05
3.79204e-05
-7.05605e-05
9.88442e-05
-7.57864e-07
-0.000108213
2.28478e-05
-2.90155e-05
-9.47503e-05
-1.58059e-05
-3.29098e-05
-1.35824e-05
-2.25093e-05
-0.000116605
7.50317e-05
-5.1402e-06
9.96519e-05
-7.94855e-05
-2.79048e-07
-0.00011403
-6.29578e-05
3.74418e-05
9.1763e-05
4.29947e-05
3.23352e-05
1.63193e-05
-1.53029e-05
5.48126e-05
-1.16177e-05
-4.57481e-05
7.60541e-06
-1.33285e-05
4.30401e-05
-8.87914e-05
9.67939e-05
3.9676e-05
-7.86202e-05
-2.58652e-06
0.000116136
2.74356e-06
-3.37415e-05
4.72141e-05
4.70119e-05
-7.95561e-05
-0.000165672
4.71636e-05
5.50158e-05
-6.18614e-05
8.97581e-05
4.61994e-06
-3.19665e-05
2.88921e-05
-8.9372e-07
4.71505e-06
-2.48111e-05
3.81143e-05
1.36066e-06
-7.53074e-05
2.67392e-05
-3.20619e-05
-7.72802e-05
5.40016e-06
0.000194911
-8.70362e-05
-7.22238e-05
-3.54687e-05
3.68662e-05
4.05789e-05
-5.33252e-06
4.97089e-05
-2.14998e-05
1.509e-05
-4.2733e-05
8.39259e-05
-4.58732e-05