# vtk DataFile Version 1.0
Electron Density - Current Sheet 
ASCII
DATASET STRUCTURED_POINTS
DIMENSIONS 256 128 1
ORIGIN 0 0 0
SPACING 0.15625 0.15625 1
POINT_DATA 32768
SCALARS rhoe float
LOOKUP_TABLE default
-2.31565e-18
-2.15242e-18
-2.11554e-18
-1.81102e-18
-1.96846e-18
-1.95571e-18
-1.90608e-18
-1.91107e-18
-1.95251e-18
-1.7893e-18
-2.04563e-18
-2.0653e-18
-1.8027e-18
-1.81874e-18
-1.94549e-18
-1.88294e-18
-1.95643e-18
-1.89581e-18
-1.90322e-18
-1.9958e-18
-1.86598e-18
-2.15357e-18
-1.77427e-18
-1.96514e-18
-2.08204e-18
-1.93597e-18
-1.81716e-18
-1.80081e-18
-1.93149e-18
-1.99274e-18
-2.00256e-18
-1.91797e-18
-1.81798e-18
-1.88819e-18
-2.15872e-18
-1.74573e-18
-2.08709e-18
-1.9519e-18
-2.05177e-18
-1.82835e-18
-1.85264e-18
-1.79635e-18
-2.15377e-18
-1.91132e-18
-1.74754e-18
-1.96015e-18
-1.9017e-18
-2.08164e-18
-1.97485e-18
-1.95239e-18
-1.9805e-18
-2.11197e-18
-1.80721e-18
-1.7577e-18
-1.84737e-18
-2.12984e-18
-1.89945e-18
-1.78732e-18
-1.87467e-18
-1.93517e-18
-1.96821e-18
-2.08768e-18
-2.1921e-18
-1.86786e-18
-1.97108e-18
-1.74111e-18
-1.81983e-18
-1.97267e-18
-1.98249e-18
-1.93962e-18
-2.05516e-18
-1.94892e-18
-1.85559e-18
-1.86425e-18
-1.90826e-18
-2.07329e-18
-1.9466e-18
-1.75578e-18
-1.84143e-18
-1.98685e-18
-1.80393e-18
-2.16136e-18
-2.0482e-18
-1.65151e-18
-2.28427e-18
-1.80825e-18
-1.75731e-18
-2.21653e-18
-1.86787e-18
-1.93297e-18
-1.92719e-18
-1.90269e-18
-1.7547e-18
-1.96874e-18
-2.15769e-18
-1.96816e-18
-2.04759e-18
-1.70448e-18
-2.01101e-18
-1.95498e-18
-1.81275e-18
-1.9417e-18
-1.97525e-18
-1.93602e-18
-1.97263e-18
-1.91266e-18
-1.78994e-18
-1.92004e-18
-2.2034e-18
-1.80532e-18
-2.0674e-18
-1.9843e-18
-1.99104e-18
-1.75159e-18
-1.94333e-18
-2.12872e-18
-1.86882e-18
-1.86065e-18
-1.82563e-18
-1.95772e-18
-2.09293e-18
-1.91384e-18
-1.81228e-18
-2.00104e-18
-1.8957e-18
-1.9404e-18
-2.00889e-18
-2.02365e-18
-1.80258e-18
-1.98428e-18
-1.87104e-18
-1.9063e-18
-2.14601e-18
-1.93804e-18
-1.75061e-18
-2.07377e-18
-1.76896e-18
-2.05418e-18
-2.02112e-18
-1.99635e-18
-1.76746e-18
-2.04978e-18
-1.91885e-18
-1.80636e-18
-1.94757e-18
-1.85961e-18
-1.87388e-18
-2.0697e-18
-2.06809e-18
-1.9085e-18
-1.86538e-18
-1.95029e-18
-1.8551e-18
-1.8808e-18
-2.01889e-18
-1.94282e-18
-2.01295e-18
-2.05034e-18
-1.90408e-18
-2.05711e-18
-1.77588e-18
-1.95259e-18
-2.04826e-18
-1.78625e-18
-2.2189e-18
-1.78893e-18
-1.92043e-18
-1.82807e-18
-1.98549e-18
-1.89469e-18
-1.94051e-18
-1.9218e-18
-2.17674e-18
-1.63778e-18
-2.00809e-18
-1.92585e-18
-1.8825e-18
-1.82225e-18
-2.13581e-18
-2.10009e-18
-1.72122e-18
-2.06593e-18
-1.9535e-18
-1.99548e-18
-2.0073e-18
-1.57822e-18
-1.99231e-18
-2.0448e-18
-2.15518e-18
-1.89496e-18
-1.93922e-18
-1.93187e-18
-1.60777e-18
-1.94426e-18
-2.12791e-18
-1.87646e-18
-1.94605e-18
-1.84532e-18
-1.96168e-18
-1.88919e-18
-2.10133e-18
-1.99959e-18
-1.82324e-18
-2.02296e-18
-1.77041e-18
-2.12611e-18
-1.97268e-18
-1.80848e-18
-1.97193e-18
-1.94193e-18
-1.99048e-18
-1.93884e-18
-1.87694e-18
-1.94496e-18
-1.99061e-18
-1.86049e-18
-1.81215e-18
-2.21465e-18
-1.87078e-18
-1.98357e-18
-1.95622e-18
-2.01981e-18
-1.86077e-18
-1.9502e-18
-1.87409e-18
-1.82176e-18
-2.04082e-18
-1.97853e-18
-1.79833e-18
-2.03722e-18
-2.01796e-18
-1.78226e-18
-1.91494e-18
-2.10212e-18
-1.82483e-18
-1.88333e-18
-2.05283e-18
-1.90207e-18
-1.898e-18
-1.84704e-18
-2.04666e-18
-1.99237e-18
-1.88627e-18
-1.92353e-18
-1.89033e-18
-2.04747e-18
-1.81299e-18
-2.1368e-18
-2.05749e-18
-1.67258e-18
-2.02308e-18
-1.99516e-18
-1.96521e-18
-1.87435e-18
-1.94556e-18
-1.85293e-18
-2.689e-18
-3.09583e-18
-2.77671e-18
-2.76275e-18
-2.7691e-18
-2.80768e-18
-2.70705e-18
-2.82231e-18
-2.69126e-18
-2.76916e-18
-2.71936e-18
-2.86209e-18
-2.99738e-18
-2.6416e-18
-2.815e-18
-2.78404e-18
-2.72917e-18
-2.74456e-18
-2.84154e-18
-2.6963e-18
-2.8617e-18
-2.77087e-18
-2.64957e-18
-2.7715e-18
-2.93135e-18
-2.74664e-18
-2.88381e-18
-2.55193e-18
-2.77119e-18
-2.84326e-18
-2.9184e-18
-2.45846e-18
-2.83828e-18
-2.81745e-18
-2.87489e-18
-2.7441e-18
-2.76278e-18
-2.89734e-18
-2.86244e-18
-2.66239e-18
-2.74789e-18
-2.7229e-18
-2.95582e-18
-2.71043e-18
-2.61357e-18
-2.66841e-18
-3.01033e-18
-2.86645e-18
-2.51743e-18
-2.90162e-18
-2.8228e-18
-2.9105e-18
-2.7517e-18
-2.83356e-18
-2.62493e-18
-2.76861e-18
-2.71797e-18
-2.92177e-18
-2.6684e-18
-2.78674e-18
-2.68449e-18
-2.96818e-18
-2.75345e-18
-2.66607e-18
-2.83133e-18
-2.86692e-18
-2.78114e-18
-2.87369e-18
-2.50375e-18
-2.84139e-18
-2.74339e-18
-2.70694e-18
-2.84755e-18
-2.89863e-18
-2.90108e-18
-2.70572e-18
-2.66896e-18
-2.83381e-18
-2.70869e-18
-2.86923e-18
-2.8258e-18
-2.87926e-18
-2.73412e-18
-2.67114e-18
-2.62898e-18
-2.77838e-18
-2.88473e-18
-2.88959e-18
-2.75653e-18
-2.54752e-18
-3.09234e-18
-2.79881e-18
-2.75635e-18
-2.69876e-18
-2.70282e-18
-2.90522e-18
-2.79015e-18
-2.74546e-18
-2.7636e-18
-2.67733e-18
-2.75295e-18
-2.79845e-18
-2.7411e-18
-2.82267e-18
-2.70343e-18
-2.76397e-18
-2.72613e-18
-2.93739e-18
-2.84743e-18
-2.80712e-18
-2.70403e-18
-2.6862e-18
-2.87439e-18
-2.88542e-18
-2.61699e-18
-2.73975e-18
-2.85309e-18
-2.73747e-18
-2.6826e-18
-2.83117e-18
-2.82578e-18
-3.06633e-18
-2.9049e-18
-2.51855e-18
-2.79778e-18
-2.84614e-18
-2.94701e-18
-2.74077e-18
-2.53615e-18
-2.78016e-18
-2.80081e-18
-2.76393e-18
-3.00068e-18
-2.83512e-18
-2.52324e-18
-2.76898e-18
-2.75646e-18
-2.89192e-18
-2.73273e-18
-2.89053e-18
-2.5191e-18
-2.79893e-18
-2.78516e-18
-2.80318e-18
-2.82689e-18
-2.99325e-18
-2.57e-18
-2.79016e-18
-2.72359e-18
-2.70559e-18
-2.87768e-18
-2.69286e-18
-2.89451e-18
-2.85257e-18
-2.70112e-18
-2.79074e-18
-2.86954e-18
-2.69684e-18
-2.7572e-18
-2.89188e-18
-2.62831e-18
-2.8357e-18
-2.84821e-18
-2.66673e-18
-2.82893e-18
-2.88219e-18
-2.72196e-18
-2.88725e-18
-2.54149e-18
-2.91447e-18
-2.69454e-18
-2.79149e-18
-2.82063e-18
-2.78018e-18
-2.86453e-18
-2.81435e-18
-2.70205e-18
-2.85896e-18
-2.76616e-18
-2.78696e-18
-2.59797e-18
-2.91765e-18
-2.64159e-18
-2.83624e-18
-2.78782e-18
-2.83071e-18
-2.71905e-18
-2.64309e-18
-2.66209e-18
-2.97312e-18
-2.86108e-18
-2.89976e-18
-2.64343e-18
-2.81001e-18
-2.72605e-18
-3.00049e-18
-2.70322e-18
-2.72889e-18
-2.70512e-18
-2.7252e-18
-2.77317e-18
-2.87555e-18
-2.91268e-18
-2.72443e-18
-2.63724e-18
-2.81903e-18
-2.6676e-18
-2.88924e-18
-2.94018e-18
-2.81679e-18
-2.71498e-18
-2.96258e-18
-2.68216e-18
-2.85925e-18
-2.67509e-18
-2.71735e-18
-2.77105e-18
-2.82367e-18
-2.70441e-18
-2.99695e-18
-2.5874e-18
-2.60158e-18
-2.94292e-18
-2.78996e-18
-2.78558e-18
-2.74941e-18
-2.82546e-18
-2.7971e-18
-2.832e-18
-2.95501e-18
-2.50578e-18
-2.76522e-18
-2.593e-18
-2.9997e-18
-2.89969e-18
-2.66796e-18
-2.82398e-18
-2.7432e-18
-2.85121e-18
-2.76598e-18
-2.73361e-18
-2.8179e-18
-2.64433e-18
-2.82615e-18
-2.76409e-18
-2.83379e-18
-2.66317e-18
-2.80398e-18
-2.98289e-18
-2.80509e-18
-2.61216e-18
-2.88635e-18
-2.94088e-18
-2.57793e-18
-2.95231e-18
-2.70817e-18
-4.86694e-18
-4.60748e-18
-5.77198e-18
-5.65279e-18
-5.33897e-18
-5.7059e-18
-4.8341e-18
-4.93177e-18
-5.41008e-18
-5.10089e-18
-4.72126e-18
-5.31752e-18
-5.5519e-18
-5.30623e-18
-4.95687e-18
-5.20334e-18
-5.36315e-18
-5.18283e-18
-5.29081e-18
-4.71305e-18
-5.23255e-18
-5.19338e-18
-5.64643e-18
-5.02773e-18
-5.35326e-18
-5.08809e-18
-5.33728e-18
-5.08454e-18
-5.14108e-18
-5.21279e-18
-5.18372e-18
-4.99429e-18
-5.04466e-18
-5.32816e-18
-5.20211e-18
-5.36829e-18
-5.34842e-18
-4.81807e-18
-5.53169e-18
-4.97287e-18
-5.20647e-18
-5.04107e-18
-5.33565e-18
-4.80313e-18
-5.3792e-18
-5.18999e-18
-5.60074e-18
-5.30779e-18
-4.87785e-18
-5.06832e-18
-5.02548e-18
-5.16791e-18
-5.6757e-18
-5.13776e-18
-5.01934e-18
-4.97235e-18
-4.835e-18
-5.3888e-18
-5.28726e-18
-5.66777e-18
-5.31093e-18
-5.2544e-18
-5.23252e-18
-5.07204e-18
-4.92677e-18
-5.22037e-18
-5.1217e-18
-5.47971e-18
-4.81073e-18
-5.10378e-18
-5.34721e-18
-5.25632e-18
-4.67586e-18
-5.34362e-18
-5.31857e-18
-5.2881e-18
-5.01873e-18
-5.4747e-18
-5.06071e-18
-5.49323e-18
-5.2953e-18
-5.04623e-18
-5.02017e-18
-5.50927e-18
-4.78904e-18
-5.19342e-18
-5.49802e-18
-5.17752e-18
-4.92296e-18
-5.26907e-18
-5.64532e-18
-4.87721e-18
-5.22435e-18
-5.18999e-18
-5.00322e-18
-5.29813e-18
-5.39154e-18
-4.93944e-18
-5.2922e-18
-5.44214e-18
-4.7887e-18
-5.01885e-18
-5.56865e-18
-5.18985e-18
-5.23516e-18
-4.83263e-18
-5.22195e-18
-4.8964e-18
-5.56085e-18
-5.13668e-18
-5.24391e-18
-5.1824e-18
-5.42806e-18
-5.18126e-18
-5.11493e-18
-5.11776e-18
-5.31416e-18
-5.31139e-18
-4.98675e-18
-5.14554e-18
-5.52908e-18
-5.19388e-18
-5.1854e-18
-4.83907e-18
-5.23066e-18
-5.26292e-18
-5.73268e-18
-5.11303e-18
-5.20561e-18
-5.06077e-18
-5.12007e-18
-5.10069e-18
-4.92148e-18
-5.5073e-18
-5.29594e-18
-5.01918e-18
-4.9373e-18
-5.28292e-18
-5.48276e-18
-5.20123e-18
-5.18047e-18
-4.92981e-18
-5.39876e-18
-5.13146e-18
-5.07328e-18
-5.57198e-18
-4.82227e-18
-5.51651e-18
-5.14032e-18
-4.94014e-18
-5.38953e-18
-4.9952e-18
-5.14089e-18
-5.23351e-18
-5.19388e-18
-4.78465e-18
-5.38538e-18
-5.37402e-18
-5.35004e-18
-5.08454e-18
-5.27484e-18
-5.41506e-18
-5.45969e-18
-4.65986e-18
-4.99467e-18
-5.33581e-18
-5.2661e-18
-5.44789e-18
-4.93694e-18
-5.05979e-18
-5.25793e-18
-5.30029e-18
-5.35815e-18
-5.23586e-18
-5.13565e-18
-5.19865e-18
-5.1723e-18
-5.29148e-18
-5.38173e-18
-4.91501e-18
-4.85818e-18
-5.32808e-18
-4.98817e-18
-5.04073e-18
-5.79268e-18
-5.36749e-18
-5.10877e-18
-4.922e-18
-5.49034e-18
-5.11349e-18
-5.17243e-18
-4.85905e-18
-5.29367e-18
-5.30286e-18
-5.08975e-18
-5.169e-18
-5.69624e-18
-5.1133e-18
-4.46596e-18
-5.41472e-18
-5.55275e-18
-4.98006e-18
-5.20357e-18
-5.32325e-18
-5.35538e-18
-5.21563e-18
-5.07485e-18
-5.42044e-18
-5.3623e-18
-4.85669e-18
-4.98609e-18
-5.01476e-18
-5.38122e-18
-5.38823e-18
-5.21898e-18
-4.89792e-18
-5.34913e-18
-5.17653e-18
-4.83144e-18
-5.50667e-18
-4.7715e-18
-5.50655e-18
-5.55198e-18
-5.15075e-18
-4.7494e-18
-5.22398e-18
-5.27896e-18
-5.02962e-18
-5.69395e-18
-5.31305e-18
-5.05582e-18
-5.26867e-18
-5.15085e-18
-5.31997e-18
-5.15103e-18
-4.54389e-18
-5.23307e-18
-5.36838e-18
-5.55694e-18
-5.29057e-18
-4.92459e-18
-5.4771e-18
-4.89193e-18
-5.41448e-18
-5.11609e-18
-5.38931e-18
-4.94293e-18
-5.15063e-18
-5.16814e-18
-5.06657e-18
-5.38893e-18
-5.57513e-18
-4.97745e-18
-5.1669e-18
-4.88749e-18
-5.47964e-18
-1.05615e-17
-9.70382e-18
-1.02051e-17
-9.73007e-18
-1.08417e-17
-9.71309e-18
-9.73319e-18
-9.26052e-18
-1.02406e-17
-9.01424e-18
-9.35053e-18
-1.01568e-17
-1.02228e-17
-9.33418e-18
-1.00876e-17
-9.50033e-18
-9.25157e-18
-9.98387e-18
-9.76993e-18
-9.00165e-18
-1.03383e-17
-9.58141e-18
-1.02583e-17
-9.45844e-18
-9.75455e-18
-9.32821e-18
-9.57446e-18
-9.78927e-18
-9.76086e-18
-1.02044e-17
-9.22084e-18
-9.33477e-18
-9.88961e-18
-9.82819e-18
-9.90007e-18
-9.26664e-18
-1.06518e-17
-9.86226e-18
-9.1411e-18
-9.77132e-18
-9.8136e-18
-8.76803e-18
-9.74315e-18
-1.00829e-17
-9.41313e-18
-9.88966e-18
-1.00553e-17
-9.7738e-18
-9.79613e-18
-9.97254e-18
-9.8075e-18
-8.94357e-18
-9.97992e-18
-9.39206e-18
-9.16709e-18
-1.02309e-17
-1.01311e-17
-9.45479e-18
-9.42381e-18
-9.58954e-18
-1.00857e-17
-9.94465e-18
-9.30562e-18
-1.00923e-17
-9.30336e-18
-8.89221e-18
-1.01249e-17
-1.02692e-17
-9.17044e-18
-1.03051e-17
-9.51044e-18
-9.68471e-18
-9.99432e-18
-9.26287e-18
-9.41599e-18
-9.41358e-18
-1.00887e-17
-1.00965e-17
-1.00431e-17
-9.60073e-18
-8.76601e-18
-1.0197e-17
-9.80916e-18
-1.01703e-17
-9.08167e-18
-9.99946e-18
-9.19346e-18
-1.03679e-17
-9.72381e-18
-9.4061e-18
-9.4104e-18
-1.00014e-17
-9.67478e-18
-1.00186e-17
-9.5166e-18
-9.62842e-18
-9.73248e-18
-9.80936e-18
-9.88663e-18
-9.62275e-18
-9.36868e-18
-9.37907e-18
-9.88781e-18
-9.96475e-18
-9.71333e-18
-9.20342e-18
-1.00334e-17
-9.87165e-18
-9.69114e-18
-9.544e-18
-1.00231e-17
-9.60602e-18
-1.01255e-17
-8.55193e-18
-1.02624e-17
-1.01819e-17
-9.21097e-18
-9.92721e-18
-9.94615e-18
-9.55464e-18
-1.00731e-17
-9.43999e-18
-1.00741e-17
-9.26643e-18
-9.0632e-18
-9.58144e-18
-1.02168e-17
-1.01459e-17
-8.82354e-18
-9.68691e-18
-1.01695e-17
-9.96136e-18
-9.64532e-18
-9.34762e-18
-1.07071e-17
-1.00123e-17
-9.66409e-18
-9.12295e-18
-9.67077e-18
-9.34153e-18
-8.85941e-18
-9.9759e-18
-1.05976e-17
-9.53805e-18
-9.95004e-18
-1.00671e-17
-8.63636e-18
-9.59155e-18
-9.95926e-18
-9.3314e-18
-9.77598e-18
-9.93605e-18
-9.92836e-18
-9.24638e-18
-1.0259e-17
-9.43497e-18
-9.7801e-18
-9.54968e-18
-1.03198e-17
-9.76227e-18
-9.17985e-18
-9.99523e-18
-9.45496e-18
-8.92994e-18
-1.01464e-17
-1.0637e-17
-9.54644e-18
-9.42251e-18
-9.01933e-18
-1.02531e-17
-9.64248e-18
-9.91549e-18
-1.02338e-17
-9.23635e-18
-9.21729e-18
-9.94054e-18
-1.07327e-17
-9.22812e-18
-8.87614e-18
-9.87162e-18
-9.84583e-18
-1.02386e-17
-9.56424e-18
-9.80256e-18
-9.1301e-18
-1.01508e-17
-1.00507e-17
-9.62971e-18
-9.93004e-18
-9.2197e-18
-8.69599e-18
-1.03557e-17
-9.46652e-18
-9.60978e-18
-1.07803e-17
-9.65888e-18
-9.65113e-18
-9.36034e-18
-9.46391e-18
-9.7071e-18
-9.83398e-18
-9.49413e-18
-9.73458e-18
-1.03387e-17
-1.04249e-17
-8.9911e-18
-9.36193e-18
-9.9987e-18
-9.51358e-18
-9.47347e-18
-9.71724e-18
-9.79651e-18
-9.86405e-18
-9.50435e-18
-1.01558e-17
-9.37257e-18
-9.42843e-18
-9.5005e-18
-9.92854e-18
-9.69723e-18
-9.72214e-18
-9.99925e-18
-1.01772e-17
-9.07698e-18
-9.26877e-18
-1.00805e-17
-1.00017e-17
-8.99535e-18
-1.08241e-17
-1.0036e-17
-9.18132e-18
-9.64186e-18
-9.6773e-18
-9.69423e-18
-9.94471e-18
-9.40493e-18
-9.60965e-18
-9.42863e-18
-1.00269e-17
-9.87924e-18
-9.67543e-18
-9.50146e-18
-9.58604e-18
-9.94404e-18
-9.51679e-18
-9.52682e-18
-1.02523e-17
-9.96461e-18
-9.92002e-18
-8.91956e-18
-9.56728e-18
-9.93907e-18
-9.77358e-18
-9.56337e-18
-9.67491e-18
-9.06126e-18
-1.83452e-17
-1.92447e-17
-1.67296e-17
-1.84429e-17
-2.12149e-17
-2.14386e-17
-1.86328e-17
-1.80167e-17
-1.91669e-17
-1.6915e-17
-1.76411e-17
-1.93509e-17
-1.88953e-17
-1.71067e-17
-1.86921e-17
-1.74733e-17
-1.75266e-17
-1.91056e-17
-1.65553e-17
-1.93844e-17
-1.8078e-17
-1.69345e-17
-1.83566e-17
-1.78237e-17
-1.84121e-17
-1.85778e-17
-1.84916e-17
-1.76567e-17
-1.87559e-17
-1.9183e-17
-1.8045e-17
-1.7778e-17
-1.83013e-17
-1.76623e-17
-1.75659e-17
-1.8816e-17
-1.79656e-17
-1.90102e-17
-1.73083e-17
-1.70541e-17
-1.81388e-17
-1.77167e-17
-1.86206e-17
-1.87384e-17
-1.61484e-17
-1.97559e-17
-1.82735e-17
-1.72923e-17
-1.83243e-17
-1.8963e-17
-1.7144e-17
-1.91202e-17
-1.77154e-17
-1.75079e-17
-1.79727e-17
-1.87398e-17
-1.74219e-17
-1.88069e-17
-1.89553e-17
-1.74596e-17
-1.82392e-17
-1.87592e-17
-1.64373e-17
-1.85206e-17
-1.76558e-17
-1.81493e-17
-1.87571e-17
-1.91262e-17
-1.66258e-17
-1.92092e-17
-1.82578e-17
-1.76044e-17
-1.80005e-17
-1.82201e-17
-1.75969e-17
-1.86425e-17
-1.78567e-17
-1.81347e-17
-1.90055e-17
-1.87973e-17
-1.69581e-17
-1.72494e-17
-1.8236e-17
-1.92692e-17
-1.77485e-17
-1.80019e-17
-1.71383e-17
-1.82756e-17
-1.97955e-17
-1.90826e-17
-1.79979e-17
-1.82464e-17
-1.76104e-17
-1.73872e-17
-1.67293e-17
-1.83099e-17
-1.90887e-17
-1.92594e-17
-1.68242e-17
-1.85809e-17
-1.75828e-17
-1.80653e-17
-1.86599e-17
-1.77728e-17
-1.77311e-17
-1.76819e-17
-1.88351e-17
-1.84053e-17
-1.83696e-17
-1.78007e-17
-1.78928e-17
-2.02694e-17
-1.81037e-17
-1.6388e-17
-1.9373e-17
-1.79039e-17
-1.75465e-17
-1.74834e-17
-1.84262e-17
-1.80825e-17
-1.94849e-17
-1.72363e-17
-1.68581e-17
-1.8286e-17
-1.96852e-17
-1.80646e-17
-1.76808e-17
-1.77701e-17
-1.84229e-17
-1.82252e-17
-1.74912e-17
-1.97388e-17
-1.62345e-17
-1.79292e-17
-1.82591e-17
-1.91891e-17
-1.82732e-17
-1.72046e-17
-1.77826e-17
-1.86963e-17
-1.8337e-17
-1.78018e-17
-1.799e-17
-1.84208e-17
-1.87136e-17
-1.91914e-17
-1.61959e-17
-1.84939e-17
-1.86086e-17
-1.68822e-17
-1.88793e-17
-1.7505e-17
-1.9209e-17
-1.7153e-17
-1.72064e-17
-1.84408e-17
-1.91751e-17
-1.89722e-17
-1.63883e-17
-1.8934e-17
-1.68921e-17
-1.88506e-17
-1.86775e-17
-1.77728e-17
-1.85848e-17
-1.77146e-17
-1.91209e-17
-1.69509e-17
-1.83918e-17
-1.89602e-17
-1.77188e-17
-1.76925e-17
-1.83074e-17
-1.84218e-17
-1.79135e-17
-1.83826e-17
-1.94612e-17
-1.66403e-17
-1.73865e-17
-1.91638e-17
-1.89397e-17
-1.84928e-17
-1.78249e-17
-1.80602e-17
-1.78766e-17
-1.61588e-17
-1.89495e-17
-1.9199e-17
-1.78759e-17
-1.79521e-17
-1.68742e-17
-2.00856e-17
-1.79277e-17
-1.75584e-17
-1.841e-17
-1.8257e-17
-1.82343e-17
-1.72268e-17
-1.85335e-17
-1.75338e-17
-1.809e-17
-1.85778e-17
-1.79704e-17
-1.94444e-17
-1.86386e-17
-1.66605e-17
-1.94216e-17
-1.74179e-17
-1.68218e-17
-1.81989e-17
-1.9877e-17
-1.78659e-17
-1.78427e-17
-1.76121e-17
-1.97876e-17
-1.73944e-17
-1.73296e-17
-1.78097e-17
-1.87319e-17
-1.75477e-17
-1.91177e-17
-1.77943e-17
-1.73641e-17
-1.96101e-17
-1.81598e-17
-1.70008e-17
-1.83067e-17
-1.81002e-17
-1.81044e-17
-1.87057e-17
-1.80176e-17
-1.87377e-17
-1.83538e-17
-1.72313e-17
-1.74535e-17
-1.86499e-17
-1.88722e-17
-1.87395e-17
-1.62459e-17
-1.83587e-17
-1.83989e-17
-1.97362e-17
-1.62839e-17
-1.7841e-17
-1.8668e-17
-1.77437e-17
-1.85726e-17
-1.79484e-17
-1.84306e-17
-1.87432e-17
-1.83922e-17
-1.66095e-17
-1.74606e-17
-1.97703e-17
-1.80061e-17
-1.72347e-17
-3.34644e-17
-3.21759e-17
-3.43395e-17
-3.4636e-17
-3.30578e-17
-3.83303e-17
-3.97175e-17
-3.48147e-17
-3.45272e-17
-3.38961e-17
-3.38099e-17
-3.4168e-17
-3.24621e-17
-3.26292e-17
-3.32841e-17
-3.51345e-17
-3.36301e-17
-3.64959e-17
-3.09703e-17
-3.326e-17
-3.5059e-17
-3.27289e-17
-3.28765e-17
-3.28528e-17
-3.69068e-17
-3.58793e-17
-3.38789e-17
-3.28402e-17
-3.2566e-17
-3.28543e-17
-3.53423e-17
-3.60226e-17
-3.3121e-17
-3.21228e-17
-3.35255e-17
-3.34989e-17
-3.65549e-17
-3.27533e-17
-3.4317e-17
-3.15697e-17
-3.44735e-17
-3.46657e-17
-3.54399e-17
-3.30882e-17
-3.39473e-17
-3.36632e-17
-3.25581e-17
-3.33921e-17
-3.51811e-17
-3.44157e-17
-3.43184e-17
-3.1155e-17
-3.29071e-17
-3.62541e-17
-3.26204e-17
-3.37057e-17
-3.45475e-17
-3.18479e-17
-3.31269e-17
-3.50388e-17
-3.71206e-17
-3.43505e-17
-3.17012e-17
-3.26143e-17
-3.43763e-17
-3.46655e-17
-3.20625e-17
-3.55914e-17
-3.30547e-17
-3.37837e-17
-3.40623e-17
-3.29609e-17
-3.56854e-17
-3.50309e-17
-3.27876e-17
-3.55829e-17
-3.23408e-17
-3.30271e-17
-3.54435e-17
-3.4655e-17
-3.34923e-17
-3.29253e-17
-3.36854e-17
-3.43117e-17
-3.54556e-17
-3.35877e-17
-3.30475e-17
-3.23465e-17
-3.44263e-17
-3.41985e-17
-3.35824e-17
-3.47098e-17
-3.44942e-17
-3.41544e-17
-3.20789e-17
-3.21416e-17
-3.54532e-17
-3.63853e-17
-3.33142e-17
-3.43937e-17
-3.33341e-17
-3.13326e-17
-3.42265e-17
-3.35793e-17
-3.35833e-17
-3.45545e-17
-3.52604e-17
-3.41621e-17
-3.62514e-17
-3.00118e-17
-3.59131e-17
-3.33005e-17
-3.25388e-17
-3.1649e-17
-3.61841e-17
-3.3244e-17
-3.39661e-17
-3.41727e-17
-3.28329e-17
-3.48484e-17
-3.72192e-17
-3.15049e-17
-3.27239e-17
-3.44552e-17
-3.37448e-17
-3.36542e-17
-3.46282e-17
-3.39281e-17
-3.51194e-17
-3.28377e-17
-3.55304e-17
-3.44028e-17
-3.07862e-17
-3.39254e-17
-3.4377e-17
-3.29941e-17
-3.30037e-17
-3.61702e-17
-3.11822e-17
-3.54241e-17
-3.43967e-17
-2.9991e-17
-3.54367e-17
-3.51076e-17
-3.6059e-17
-3.18187e-17
-3.42235e-17
-3.37291e-17
-3.28091e-17
-3.39541e-17
-3.53138e-17
-3.4285e-17
-3.58375e-17
-3.1232e-17
-3.29286e-17
-3.45531e-17
-3.48166e-17
-3.42165e-17
-3.37819e-17
-3.40021e-17
-3.07519e-17
-3.76422e-17
-3.25824e-17
-3.33106e-17
-3.40575e-17
-3.24636e-17
-3.44353e-17
-3.29156e-17
-3.34513e-17
-3.53709e-17
-3.66392e-17
-2.99747e-17
-3.42145e-17
-3.5187e-17
-3.53716e-17
-3.40592e-17
-3.50313e-17
-3.2677e-17
-3.15962e-17
-3.44666e-17
-3.71083e-17
-3.21772e-17
-3.31061e-17
-3.30605e-17
-3.62e-17
-3.23536e-17
-3.43579e-17
-3.35718e-17
-3.37977e-17
-3.3399e-17
-3.38363e-17
-3.54214e-17
-3.35971e-17
-3.24595e-17
-3.36019e-17
-3.5545e-17
-3.53716e-17
-3.15551e-17
-3.3724e-17
-3.47249e-17
-3.22488e-17
-3.48572e-17
-3.16653e-17
-3.83702e-17
-3.51788e-17
-2.95042e-17
-3.48568e-17
-3.52332e-17
-3.32202e-17
-3.18404e-17
-3.35969e-17
-3.34998e-17
-3.4553e-17
-3.3207e-17
-3.5748e-17
-3.38115e-17
-3.63452e-17
-3.18784e-17
-3.62834e-17
-3.2311e-17
-3.37182e-17
-3.23194e-17
-3.3486e-17
-3.59275e-17
-3.47333e-17
-3.27124e-17
-3.37867e-17
-3.29632e-17
-3.4546e-17
-3.49596e-17
-3.32561e-17
-3.38693e-17
-3.53232e-17
-3.20468e-17
-3.26748e-17
-3.35255e-17
-3.41345e-17
-3.2698e-17
-3.40716e-17
-3.48891e-17
-3.21076e-17
-3.63478e-17
-3.48182e-17
-3.33754e-17
-3.33785e-17
-3.69352e-17
-3.20881e-17
-3.06804e-17
-3.51534e-17
-3.31084e-17
-3.51827e-17
-3.47952e-17
-3.52652e-17
-3.08959e-17
-3.44578e-17
-3.61831e-17
-6.79695e-17
-5.85785e-17
-6.4448e-17
-5.7617e-17
-6.53061e-17
-6.2728e-17
-6.94174e-17
-6.92153e-17
-6.38625e-17
-6.64828e-17
-5.95148e-17
-6.45043e-17
-6.38172e-17
-6.25988e-17
-6.37581e-17
-6.20136e-17
-6.53505e-17
-6.48345e-17
-5.81343e-17
-6.65127e-17
-6.1409e-17
-6.89868e-17
-5.88017e-17
-6.53138e-17
-6.23794e-17
-6.40325e-17
-6.21663e-17
-6.73349e-17
-6.01814e-17
-6.16928e-17
-6.6013e-17
-6.13746e-17
-6.18832e-17
-6.02808e-17
-6.06727e-17
-6.58464e-17
-6.32975e-17
-6.7816e-17
-6.3038e-17
-6.26103e-17
-6.05442e-17
-6.37681e-17
-6.98343e-17
-5.99026e-17
-6.19824e-17
-6.75268e-17
-6.06815e-17
-5.98624e-17
-6.28715e-17
-6.71598e-17
-6.13255e-17
-6.41707e-17
-6.44238e-17
-6.08931e-17
-6.15762e-17
-6.0021e-17
-6.67025e-17
-6.58158e-17
-6.36885e-17
-6.20774e-17
-6.20784e-17
-6.44568e-17
-6.30326e-17
-6.48445e-17
-6.55197e-17
-6.16409e-17
-6.12842e-17
-6.13733e-17
-6.38335e-17
-6.30653e-17
-6.16079e-17
-6.43357e-17
-6.72221e-17
-5.95109e-17
-6.03691e-17
-6.81149e-17
-6.90922e-17
-6.03457e-17
-6.33926e-17
-6.20132e-17
-6.40152e-17
-5.65181e-17
-6.41462e-17
-6.92723e-17
-6.28862e-17
-6.00317e-17
-6.50747e-17
-6.27678e-17
-6.20969e-17
-6.08128e-17
-6.70401e-17
-5.70038e-17
-6.94214e-17
-6.17995e-17
-6.43923e-17
-6.28758e-17
-6.2978e-17
-7.015e-17
-5.85527e-17
-6.04889e-17
-6.64712e-17
-6.17626e-17
-6.37702e-17
-6.24981e-17
-6.15932e-17
-6.5279e-17
-6.36813e-17
-6.11127e-17
-6.69287e-17
-6.02277e-17
-6.14532e-17
-6.57892e-17
-6.25755e-17
-6.38036e-17
-6.04151e-17
-6.51552e-17
-6.26635e-17
-6.60476e-17
-6.63227e-17
-5.58693e-17
-6.35177e-17
-6.85163e-17
-6.09897e-17
-6.32892e-17
-6.56909e-17
-6.26458e-17
-6.27372e-17
-6.61071e-17
-6.41531e-17
-6.22616e-17
-5.91321e-17
-6.24413e-17
-6.42333e-17
-6.56641e-17
-6.49657e-17
-5.91945e-17
-6.43679e-17
-6.2334e-17
-6.3707e-17
-6.30068e-17
-6.33545e-17
-5.87965e-17
-7.12969e-17
-6.1427e-17
-6.18854e-17
-6.3721e-17
-6.40093e-17
-6.18697e-17
-5.76582e-17
-6.6964e-17
-6.29012e-17
-6.37814e-17
-6.92239e-17
-6.21217e-17
-6.15895e-17
-6.72774e-17
-6.33185e-17
-6.10607e-17
-6.16097e-17
-6.21862e-17
-6.73272e-17
-6.25423e-17
-5.96726e-17
-6.39075e-17
-6.67576e-17
-5.76364e-17
-6.52019e-17
-6.49786e-17
-6.34121e-17
-5.64618e-17
-6.93935e-17
-6.17539e-17
-6.33836e-17
-6.37435e-17
-6.28477e-17
-6.31542e-17
-6.38309e-17
-6.73376e-17
-6.48375e-17
-5.80371e-17
-5.98776e-17
-6.79791e-17
-6.26504e-17
-6.18217e-17
-6.46528e-17
-6.44946e-17
-6.5382e-17
-6.09312e-17
-6.30901e-17
-6.46513e-17
-6.5739e-17
-5.83301e-17
-6.17365e-17
-6.23953e-17
-6.63287e-17
-6.54847e-17
-6.70076e-17
-5.87704e-17
-6.42117e-17
-6.12365e-17
-6.24163e-17
-6.09236e-17
-6.14782e-17
-7.31106e-17
-5.87009e-17
-6.14506e-17
-6.52838e-17
-6.83834e-17
-5.91889e-17
-6.36041e-17
-5.78936e-17
-6.44614e-17
-6.42141e-17
-6.33162e-17
-6.42908e-17
-6.21247e-17
-6.48436e-17
-6.56053e-17
-6.437e-17
-6.21308e-17
-6.17247e-17
-6.2676e-17
-6.62015e-17
-6.19158e-17
-6.52985e-17
-5.79952e-17
-6.64346e-17
-6.44942e-17
-6.26272e-17
-5.8912e-17
-6.50645e-17
-6.30175e-17
-6.78052e-17
-6.01259e-17
-6.54722e-17
-5.86687e-17
-6.44779e-17
-6.7707e-17
-6.26252e-17
-6.40389e-17
-6.09785e-17
-5.96493e-17
-6.68752e-17
-6.24447e-17
-6.5321e-17
-6.34539e-17
-6.31344e-17
-6.16206e-17
-5.98237e-17
-5.98011e-17
-6.57503e-17
-6.81597e-17
-6.15845e-17
-5.99345e-17
-6.72681e-17
-6.53285e-17
-1.19833e-16
-1.25273e-16
-1.2161e-16
-1.12467e-16
-1.27404e-16
-1.1728e-16
-1.14261e-16
-1.29967e-16
-1.14847e-16
-1.21542e-16
-1.24039e-16
-1.1937e-16
-1.22417e-16
-1.18458e-16
-1.12471e-16
-1.16938e-16
-1.21025e-16
-1.20138e-16
-1.15338e-16
-1.18177e-16
-1.11658e-16
-1.24156e-16
-1.17128e-16
-1.2172e-16
-1.11632e-16
-1.22077e-16
-1.2433e-16
-1.16133e-16
-1.16479e-16
-1.12372e-16
-1.12741e-16
-1.22951e-16
-1.25821e-16
-1.14083e-16
-1.14932e-16
-1.22989e-16
-1.15969e-16
-1.20952e-16
-1.18594e-16
-1.19589e-16
-1.0647e-16
-1.2069e-16
-1.18389e-16
-1.2053e-16
-1.24646e-16
-1.17227e-16
-1.16585e-16
-1.12464e-16
-1.20438e-16
-1.25121e-16
-1.13504e-16
-1.23504e-16
-1.16815e-16
-1.15103e-16
-1.12936e-16
-1.22706e-16
-1.18964e-16
-1.18598e-16
-1.16281e-16
-1.22856e-16
-1.19869e-16
-1.1543e-16
-1.1532e-16
-1.22283e-16
-1.1364e-16
-1.13518e-16
-1.24456e-16
-1.14843e-16
-1.1411e-16
-1.1619e-16
-1.2694e-16
-1.15671e-16
-1.17647e-16
-1.13279e-16
-1.23085e-16
-1.15612e-16
-1.22464e-16
-1.19581e-16
-1.21136e-16
-1.11712e-16
-1.17824e-16
-1.25122e-16
-1.16006e-16
-1.21046e-16
-1.19934e-16
-1.14656e-16
-1.24893e-16
-1.17671e-16
-1.03989e-16
-1.19073e-16
-1.19336e-16
-1.14988e-16
-1.32863e-16
-1.06412e-16
-1.22639e-16
-1.18656e-16
-1.18404e-16
-1.1898e-16
-1.18473e-16
-1.11343e-16
-1.2383e-16
-1.07444e-16
-1.17459e-16
-1.23538e-16
-1.17064e-16
-1.23407e-16
-1.18281e-16
-1.22981e-16
-1.15136e-16
-1.20052e-16
-1.15167e-16
-1.15669e-16
-1.20786e-16
-1.18598e-16
-1.15e-16
-1.24141e-16
-1.15608e-16
-1.23026e-16
-1.17561e-16
-1.0979e-16
-1.20087e-16
-1.23338e-16
-1.14792e-16
-1.12983e-16
-1.21234e-16
-1.24777e-16
-1.16971e-16
-1.18625e-16
-1.23049e-16
-1.2043e-16
-1.11832e-16
-1.17324e-16
-1.20432e-16
-1.18057e-16
-1.16167e-16
-1.15747e-16
-1.14612e-16
-1.13067e-16
-1.30147e-16
-1.14976e-16
-1.22697e-16
-1.14951e-16
-1.1953e-16
-1.06115e-16
-1.27114e-16
-1.28071e-16
-1.0802e-16
-1.17518e-16
-1.26522e-16
-1.22691e-16
-1.14236e-16
-1.12734e-16
-1.1539e-16
-1.20535e-16
-1.09127e-16
-1.24279e-16
-1.26497e-16
-1.08131e-16
-1.22659e-16
-1.19528e-16
-1.17359e-16
-1.1807e-16
-1.20832e-16
-1.18612e-16
-1.18405e-16
-1.11776e-16
-1.22578e-16
-1.21723e-16
-1.15376e-16
-1.19665e-16
-1.15926e-16
-1.27716e-16
-1.13349e-16
-1.10942e-16
-1.24964e-16
-1.15768e-16
-1.15359e-16
-1.21079e-16
-1.17176e-16
-1.19466e-16
-1.22983e-16
-1.18173e-16
-1.13786e-16
-1.14258e-16
-1.20797e-16
-1.24793e-16
-1.093e-16
-1.13265e-16
-1.24209e-16
-1.24572e-16
-1.24236e-16
-1.09782e-16
-1.2109e-16
-1.20702e-16
-1.23206e-16
-1.09124e-16
-1.11556e-16
-1.17784e-16
-1.20543e-16
-1.13033e-16
-1.24822e-16
-1.14945e-16
-1.18601e-16
-1.24864e-16
-1.10007e-16
-1.24208e-16
-1.16521e-16
-1.12492e-16
-1.25272e-16
-1.16681e-16
-1.1571e-16
-1.23776e-16
-1.17104e-16
-1.1177e-16
-1.20534e-16
-1.13038e-16
-1.24135e-16
-1.22646e-16
-1.19705e-16
-1.24129e-16
-1.22492e-16
-1.14347e-16
-1.06235e-16
-1.16534e-16
-1.24099e-16
-1.32987e-16
-1.05638e-16
-1.16977e-16
-1.14906e-16
-1.16972e-16
-1.231e-16
-1.21672e-16
-1.19868e-16
-1.17685e-16
-1.17874e-16
-1.14718e-16
-1.20001e-16
-1.19102e-16
-1.13076e-16
-1.16226e-16
-1.15225e-16
-1.15087e-16
-1.25841e-16
-1.26348e-16
-1.12001e-16
-1.15314e-16
-1.18326e-16
-1.20364e-16
-1.16997e-16
-1.17734e-16
-1.17964e-16
-1.22833e-16
-1.23922e-16
-1.1123e-16
-1.19095e-16
-1.14491e-16
-2.41508e-16
-2.15499e-16
-2.19003e-16
-2.33262e-16
-2.02892e-16
-2.28708e-16
-2.19266e-16
-2.20032e-16
-2.35303e-16
-2.42258e-16
-2.41962e-16
-2.21444e-16
-2.16916e-16
-2.2862e-16
-2.19495e-16
-2.19735e-16
-2.30846e-16
-2.2522e-16
-2.21193e-16
-2.14021e-16
-2.13225e-16
-2.29597e-16
-2.0863e-16
-2.24913e-16
-2.19694e-16
-2.25562e-16
-2.18865e-16
-2.23513e-16
-2.14258e-16
-2.15879e-16
-2.17561e-16
-2.28587e-16
-2.2652e-16
-2.11175e-16
-2.12545e-16
-2.32959e-16
-2.27537e-16
-2.19912e-16
-2.08665e-16
-2.19159e-16
-2.21994e-16
-2.31965e-16
-2.16257e-16
-2.18128e-16
-2.26504e-16
-2.2419e-16
-2.16765e-16
-2.15561e-16
-2.22314e-16
-2.27491e-16
-2.11771e-16
-2.21204e-16
-2.19724e-16
-2.25962e-16
-2.17427e-16
-2.29429e-16
-2.22289e-16
-2.34267e-16
-2.1509e-16
-2.10697e-16
-2.33086e-16
-2.13708e-16
-2.15042e-16
-2.2789e-16
-2.21982e-16
-2.04647e-16
-2.14615e-16
-2.261e-16
-2.19969e-16
-2.14783e-16
-2.22731e-16
-2.31649e-16
-2.11439e-16
-2.17253e-16
-2.29596e-16
-2.26419e-16
-2.21851e-16
-2.22182e-16
-2.14442e-16
-2.26744e-16
-2.19821e-16
-2.29475e-16
-2.09393e-16
-2.22013e-16
-2.27603e-16
-2.12207e-16
-2.19082e-16
-2.25206e-16
-2.26501e-16
-2.15649e-16
-2.0721e-16
-2.21057e-16
-2.15133e-16
-2.12381e-16
-2.35134e-16
-2.28857e-16
-2.12257e-16
-2.2445e-16
-2.3575e-16
-2.2121e-16
-2.20708e-16
-2.20203e-16
-2.21586e-16
-2.1497e-16
-2.08261e-16
-2.27779e-16
-2.24842e-16
-2.1298e-16
-2.20804e-16
-2.21034e-16
-2.27879e-16
-2.14219e-16
-2.18305e-16
-2.2358e-16
-2.27878e-16
-2.29236e-16
-2.16482e-16
-2.11111e-16
-2.2568e-16
-2.24534e-16
-2.30807e-16
-2.0431e-16
-2.14178e-16
-2.26245e-16
-2.29619e-16
-2.09684e-16
-2.28124e-16
-2.41897e-16
-2.13443e-16
-2.12699e-16
-2.17734e-16
-2.24946e-16
-2.24352e-16
-2.21488e-16
-2.22643e-16
-2.12112e-16
-2.19454e-16
-2.19612e-16
-2.43054e-16
-2.10596e-16
-2.26278e-16
-2.03524e-16
-2.25747e-16
-2.27105e-16
-2.18928e-16
-2.25298e-16
-2.15351e-16
-2.03607e-16
-2.48353e-16
-2.26061e-16
-2.00698e-16
-2.20706e-16
-2.24862e-16
-2.1549e-16
-2.1867e-16
-2.23963e-16
-2.20391e-16
-2.15652e-16
-2.19604e-16
-2.13631e-16
-2.23325e-16
-2.23738e-16
-2.34988e-16
-2.1777e-16
-2.18943e-16
-2.21007e-16
-2.29924e-16
-1.9958e-16
-2.30601e-16
-2.25938e-16
-2.1449e-16
-2.32966e-16
-2.12613e-16
-2.1336e-16
-2.24383e-16
-2.33132e-16
-2.06957e-16
-2.31569e-16
-2.19266e-16
-2.10506e-16
-2.26678e-16
-2.38343e-16
-1.98312e-16
-2.26557e-16
-2.45623e-16
-2.07514e-16
-2.15073e-16
-2.07676e-16
-2.30429e-16
-2.29587e-16
-2.19492e-16
-2.21383e-16
-2.25693e-16
-2.11402e-16
-2.1324e-16
-2.21995e-16
-2.21186e-16
-2.20746e-16
-2.35646e-16
-2.09352e-16
-2.03596e-16
-2.41624e-16
-2.10535e-16
-2.18977e-16
-2.23363e-16
-2.15448e-16
-2.31859e-16
-2.18587e-16
-2.14367e-16
-2.45394e-16
-2.14645e-16
-2.1767e-16
-2.18894e-16
-2.24253e-16
-2.12464e-16
-2.09764e-16
-2.30125e-16
-2.35726e-16
-2.09187e-16
-2.25922e-16
-2.26441e-16
-2.11519e-16
-2.08977e-16
-2.38132e-16
-2.32092e-16
-2.09866e-16
-2.10818e-16
-2.29287e-16
-2.17151e-16
-2.25087e-16
-2.15127e-16
-2.37452e-16
-2.18244e-16
-2.07988e-16
-2.24864e-16
-2.34871e-16
-2.12973e-16
-2.11949e-16
-2.18349e-16
-2.19025e-16
-2.1522e-16
-2.41023e-16
-2.06869e-16
-2.21349e-16
-2.16742e-16
-2.17664e-16
-2.23322e-16
-2.20236e-16
-2.3105e-16
-2.2153e-16
-2.27708e-16
-2.13043e-16
-2.1413e-16
-2.17116e-16
-2.23152e-16
-2.18879e-16
-4.29188e-16
-3.80356e-16
-4.25225e-16
-4.26738e-16
-4.08126e-16
-4.26599e-16
-3.82768e-16
-4.19853e-16