# vtk DataFile Version 1.0
Ion Density - Current Sheet
ASCII
DATASET STRUCTURED_POINTS
DIMENSIONS 256 128 1
ORIGIN 0 0 0
SPACING 0.15625 0.15625 1
POINT_DATA 32768
SCALARS rhoi float
LOOKUP_TABLE default
1.92907e-18
1.93748e-18
1.89894e-18
1.83374e-18
1.98275e-18
1.83373e-18
1.68007e-18
1.60735e-18
1.5665e-18
1.52854e-18
1.66091e-18
1.60648e-18
1.48163e-18
1.47878e-18
1.42074e-18
1.45877e-18
1.35611e-18
1.35125e-18
1.29512e-18
1.25303e-18
1.28799e-18
1.21205e-18
1.16184e-18
1.12521e-18
1.17845e-18
1.09157e-18
1.03481e-18
1.03964e-18
1.0675e-18
1.02473e-18
9.66143e-19
1.00671e-18
9.0552e-19
1.01348e-18
9.05017e-19
8.61094e-19
8.55336e-19
8.61088e-19
8.91048e-19
8.30976e-19
8.06785e-19
8.07108e-19
8.29124e-19
7.52795e-19
8.54248e-19
8.04377e-19
8.43111e-19
8.57642e-19
8.06322e-19
8.14833e-19
8.29421e-19
8.6001e-19
7.84786e-19
7.62073e-19
7.82638e-19
8.17278e-19
8.72952e-19
8.51891e-19
8.15556e-19
8.26758e-19
8.86987e-19
9.34302e-19
9.26371e-19
8.69967e-19
9.14679e-19
8.65506e-19
9.0404e-19
9.39398e-19
9.53565e-19
9.22112e-19
9.05006e-19
1.01267e-18
9.86723e-19
1.0044e-18
1.03629e-18
1.03572e-18
1.09249e-18
1.0386e-18
1.0356e-18
1.15095e-18
1.11181e-18
1.1896e-18
1.18322e-18
1.19734e-18
1.2552e-18
1.27136e-18
1.20878e-18
1.32451e-18
1.22185e-18
1.35799e-18
1.32461e-18
1.33293e-18
1.36711e-18
1.41509e-18
1.44029e-18
1.48189e-18
1.48662e-18
1.43002e-18
1.45411e-18
1.65746e-18
1.45729e-18
1.61767e-18
1.60353e-18
1.58246e-18
1.69866e-18
1.65767e-18
1.63048e-18
1.69555e-18
1.77629e-18
1.7124e-18
1.73999e-18
1.7524e-18
1.8686e-18
1.66539e-18
1.82909e-18
1.91083e-18
1.78475e-18
1.81911e-18
1.85978e-18
1.86821e-18
1.90966e-18
1.8514e-18
1.89919e-18
1.86862e-18
1.94035e-18
1.88443e-18
1.99543e-18
1.89968e-18
1.89847e-18
1.94406e-18
1.94115e-18
1.86313e-18
2.11099e-18
1.85271e-18
1.88796e-18
1.98495e-18
1.93508e-18
1.90708e-18
1.95745e-18
2.00398e-18
1.87274e-18
1.92685e-18
1.93589e-18
1.8139e-18
1.9969e-18
1.84127e-18
1.87286e-18
1.96281e-18
1.90654e-18
1.86102e-18
1.86311e-18
1.84243e-18
1.88223e-18
1.78946e-18
1.85341e-18
1.84505e-18
1.88727e-18
1.82923e-18
1.77076e-18
1.86545e-18
1.77321e-18
1.7485e-18
1.80944e-18
1.68323e-18
1.82838e-18
1.7517e-18
1.68774e-18
1.72157e-18
1.72378e-18
1.68669e-18
1.69662e-18
1.71262e-18
1.7046e-18
1.65509e-18
1.66164e-18
1.65428e-18
1.63765e-18
1.62029e-18
1.65091e-18
1.65911e-18
1.62871e-18
1.61129e-18
1.65078e-18
1.61137e-18
1.58948e-18
1.5291e-18
1.62633e-18
1.58732e-18
1.70839e-18
1.47903e-18
1.61087e-18
1.5496e-18
1.47326e-18
1.58883e-18
1.56778e-18
1.60526e-18
1.52078e-18
1.53215e-18
1.57357e-18
1.61246e-18
1.49598e-18
1.66513e-18
1.47803e-18
1.60931e-18
1.46425e-18
1.65768e-18
1.5762e-18
1.46596e-18
1.59349e-18
1.56556e-18
1.53971e-18
1.60759e-18
1.56132e-18
1.5361e-18
1.59829e-18
1.54305e-18
1.52325e-18
1.65893e-18
1.51528e-18
1.59295e-18
1.59552e-18
1.62528e-18
1.59321e-18
1.62018e-18
1.54658e-18
1.59661e-18
1.62936e-18
1.68335e-18
1.52622e-18
1.71063e-18
1.6121e-18
1.58288e-18
1.64039e-18
1.69753e-18
1.61357e-18
1.66237e-18
1.67222e-18
1.65295e-18
1.68931e-18
1.67268e-18
1.74362e-18
1.69709e-18
1.6646e-18
1.71844e-18
1.70118e-18
1.76007e-18
1.73146e-18
1.71786e-18
1.85742e-18
1.61689e-18
1.83402e-18
1.76725e-18
1.74273e-18
1.8107e-18
1.78784e-18
1.76224e-18
2.66123e-18
2.8757e-18
2.74764e-18
2.65001e-18
2.6284e-18
2.84607e-18
2.78843e-18
2.71133e-18
2.84942e-18
2.68639e-18
2.7192e-18
2.64342e-18
2.63741e-18
2.43925e-18
2.42947e-18
2.4599e-18
2.41544e-18
2.51044e-18
2.53452e-18
2.37769e-18
2.4358e-18
2.40448e-18
2.21092e-18
2.4619e-18
2.29617e-18
2.38281e-18
2.34161e-18
2.21519e-18
2.23186e-18
2.29536e-18
2.25997e-18
2.18084e-18
2.30101e-18
2.24467e-18
2.30159e-18
2.12429e-18
2.21771e-18
2.19336e-18
2.29037e-18
2.15449e-18
2.14895e-18
2.18958e-18
2.19558e-18
2.18101e-18
2.10564e-18
2.07926e-18
2.13275e-18
2.09189e-18
2.09097e-18
2.11498e-18
2.13786e-18
2.18677e-18
2.00967e-18
2.15217e-18
2.12422e-18
2.16154e-18
2.12397e-18
2.18192e-18
2.20637e-18
2.14284e-18
2.1559e-18
2.24536e-18
2.17754e-18
2.22631e-18
2.14367e-18
2.17076e-18
2.22188e-18
2.13813e-18
2.17959e-18
2.19438e-18
2.23939e-18
2.23213e-18
2.26454e-18
2.3104e-18
2.28927e-18
2.27872e-18
2.28192e-18
2.39099e-18
2.3038e-18
2.38061e-18
2.40492e-18
2.38852e-18
2.30332e-18
2.38323e-18
2.36959e-18
2.42899e-18
2.44461e-18
2.48362e-18
2.43223e-18
2.44263e-18
2.53616e-18
2.56345e-18
2.49827e-18
2.49245e-18
2.51804e-18
2.58144e-18
2.5604e-18
2.49512e-18
2.54899e-18
2.66081e-18
2.51759e-18
2.59559e-18
2.6208e-18
2.62201e-18
2.61548e-18
2.60136e-18
2.65522e-18
2.70195e-18
2.69207e-18
2.65261e-18
2.6552e-18
2.64391e-18
2.75528e-18
2.71014e-18
2.67674e-18
2.67449e-18
2.78237e-18
2.66667e-18
2.68104e-18
2.82484e-18
2.71851e-18
2.84033e-18
2.78045e-18
2.65274e-18
2.80301e-18
2.79032e-18
2.79635e-18
2.73672e-18
2.70436e-18
2.82957e-18
2.73892e-18
2.74888e-18
2.88915e-18
2.78515e-18
2.6653e-18
2.83814e-18
2.76627e-18
2.77036e-18
2.78357e-18
2.81731e-18
2.72204e-18
2.79226e-18
2.75488e-18
2.75527e-18
2.86447e-18
2.80113e-18
2.64346e-18
2.83683e-18
2.74374e-18
2.73453e-18
2.78309e-18
2.73886e-18
2.80686e-18
2.72869e-18
2.71307e-18
2.82254e-18
2.71393e-18
2.72006e-18
2.70941e-18
2.74282e-18
2.69301e-18
2.74078e-18
2.69092e-18
2.70653e-18
2.75124e-18
2.71817e-18
2.68341e-18
2.72305e-18
2.6735e-18
2.64542e-18
2.73639e-18
2.63808e-18
2.70017e-18
2.64489e-18
2.68562e-18
2.68234e-18
2.6772e-18
2.64634e-18
2.64111e-18
2.65441e-18
2.64679e-18
2.69081e-18
2.57988e-18
2.67369e-18
2.60743e-18
2.63123e-18
2.67444e-18
2.54604e-18
2.65284e-18
2.61147e-18
2.72965e-18
2.63105e-18
2.53804e-18
2.66076e-18
2.58753e-18
2.73152e-18
2.54335e-18
2.58868e-18
2.56378e-18
2.63183e-18
2.56066e-18
2.6793e-18
2.62196e-18
2.62523e-18
2.52813e-18
2.6034e-18
2.60064e-18
2.59752e-18
2.64101e-18
2.62562e-18
2.57587e-18
2.68017e-18
2.56716e-18
2.60207e-18
2.6235e-18
2.59718e-18
2.61612e-18
2.60816e-18
2.65534e-18
2.60524e-18
2.59591e-18
2.59669e-18
2.65714e-18
2.64899e-18
2.56204e-18
2.66335e-18
2.6327e-18
2.66951e-18
2.61143e-18
2.71885e-18
2.56186e-18
2.66685e-18
2.58265e-18
2.74992e-18
2.65049e-18
2.64279e-18
2.65945e-18
2.68496e-18
2.63859e-18
2.70063e-18
2.64688e-18
2.64229e-18
2.69247e-18
2.70879e-18
2.60552e-18
2.77961e-18
2.67973e-18
2.61841e-18
2.79056e-18
2.69227e-18
2.68136e-18
2.67172e-18
2.73343e-18
2.73323e-18
2.73207e-18
2.69497e-18
5.3964e-18
5.06848e-18
5.40649e-18
5.23155e-18
5.27725e-18
5.18798e-18
4.92011e-18
5.13078e-18
4.94446e-18
4.88095e-18
4.81592e-18
5.09859e-18
5.1253e-18
4.70984e-18
4.65772e-18
4.784e-18
4.80065e-18
4.58378e-18
4.67019e-18
4.63753e-18
4.53727e-18
4.77105e-18
4.50069e-18
4.57405e-18
4.43248e-18
4.58484e-18
4.51141e-18
4.46328e-18
4.45843e-18
4.33399e-18
4.4219e-18
4.24918e-18
4.31748e-18
4.06926e-18
4.32929e-18
4.27251e-18
4.23532e-18
4.1882e-18
4.36986e-18
4.08129e-18
4.23419e-18
4.21352e-18
4.11723e-18
4.22042e-18
4.0819e-18
4.21635e-18
4.34185e-18
4.24101e-18
4.11294e-18
4.12143e-18
3.99428e-18
4.27803e-18
4.2299e-18
4.18788e-18
4.04428e-18
4.13379e-18
3.88871e-18
4.11743e-18
4.07482e-18
4.21527e-18
4.12113e-18
4.28681e-18
4.15356e-18
4.12075e-18
4.08886e-18
4.34451e-18
4.1223e-18
4.27468e-18
4.18043e-18
4.21069e-18
4.38819e-18
4.24071e-18
4.10678e-18
4.42737e-18
4.34439e-18
4.31518e-18
4.26172e-18
4.49338e-18
4.29598e-18
4.46627e-18
4.43198e-18
4.55946e-18
4.52227e-18
4.5182e-18
4.29346e-18
4.67474e-18
4.64053e-18
4.51367e-18
4.5956e-18
4.62529e-18
4.69417e-18
4.58816e-18
4.56833e-18
4.82746e-18
4.56892e-18
4.7613e-18
4.73489e-18
4.71412e-18
4.87089e-18
4.73588e-18
4.82789e-18
4.73522e-18
4.90338e-18
4.94256e-18
4.83109e-18
4.82835e-18
4.9694e-18
4.81838e-18
5.06334e-18
4.97217e-18
4.97532e-18
5.00668e-18
5.11351e-18
5.15553e-18
4.95312e-18
5.06399e-18
5.18589e-18
4.99847e-18
4.98197e-18
5.21274e-18
5.22016e-18
5.19848e-18
5.02999e-18
5.07348e-18
5.10471e-18
5.27662e-18
5.33477e-18
5.09224e-18
5.27601e-18
5.06958e-18
5.21594e-18
5.07047e-18
5.11577e-18
5.32153e-18
5.24931e-18
5.17723e-18
5.04095e-18
5.22907e-18
5.27661e-18
5.2477e-18
5.18313e-18
5.09258e-18
5.26412e-18
5.12734e-18
5.22133e-18
5.13614e-18
5.18535e-18
5.2832e-18
5.08824e-18
5.09978e-18
5.22705e-18
5.1479e-18
5.05924e-18
5.2136e-18
5.07937e-18
5.0546e-18
5.22338e-18
5.20738e-18
5.05289e-18
5.28937e-18
4.99541e-18
5.22558e-18
5.06308e-18
4.98316e-18
5.00414e-18
5.16364e-18
5.05306e-18
5.10068e-18
4.90578e-18
5.04727e-18
5.04405e-18
5.12865e-18
4.98731e-18
5.0404e-18
4.93185e-18
5.06112e-18
4.98564e-18
4.99359e-18
5.03756e-18
4.86501e-18
4.87014e-18
4.97604e-18
4.83925e-18
4.95615e-18
5.06408e-18
5.04459e-18
4.84705e-18
4.91937e-18
4.88186e-18
5.05123e-18
4.8721e-18
4.69129e-18
5.05506e-18
4.88055e-18
4.83175e-18
4.89759e-18
4.91528e-18
4.94742e-18
4.65209e-18
4.98389e-18
4.93786e-18
4.84237e-18
4.8136e-18
4.95992e-18
4.97745e-18
4.81264e-18
4.93693e-18
4.84635e-18
5.01032e-18
4.78482e-18
4.86754e-18
4.8026e-18
4.91022e-18
4.98048e-18
4.85712e-18
4.71539e-18
5.01243e-18
4.88401e-18
4.74822e-18
5.00553e-18
4.75485e-18
4.96462e-18
4.92951e-18
4.88387e-18
4.76617e-18
5.00489e-18
4.84439e-18
4.93752e-18
4.98316e-18
5.05833e-18
4.79499e-18
5.01135e-18
4.81449e-18
5.14371e-18
4.93382e-18
4.70707e-18
4.90458e-18
5.0558e-18
5.07498e-18
5.01956e-18
4.94104e-18
5.03092e-18
4.87297e-18
5.05617e-18
5.03158e-18
5.00407e-18
4.88565e-18
5.10318e-18
4.99287e-18
4.93533e-18
5.18627e-18
5.11356e-18
4.89515e-18
5.1729e-18
4.86183e-18
5.13472e-18
9.79563e-18
1.01183e-17
1.01094e-17
9.78599e-18
9.56032e-18
9.57313e-18
9.53153e-18
9.69523e-18
9.50549e-18
9.39076e-18
9.05066e-18
9.46447e-18
9.39283e-18
8.87544e-18
9.12648e-18
9.1692e-18
9.02748e-18
8.88353e-18
8.84319e-18
8.7324e-18
9.12122e-18
8.47129e-18
8.26147e-18
8.53951e-18
8.33327e-18
8.36839e-18
8.09143e-18
8.42613e-18
8.57714e-18
8.17549e-18
8.22608e-18
7.97795e-18
8.16743e-18
8.15913e-18
7.95973e-18
7.97964e-18
8.38681e-18
7.82145e-18
7.86935e-18
7.86445e-18
7.73672e-18
7.77216e-18
7.73137e-18
7.80053e-18
7.91024e-18
7.7956e-18
7.69611e-18
7.76311e-18
7.6507e-18
7.79923e-18
7.49388e-18
7.51581e-18
7.72591e-18
7.56634e-18
7.54118e-18
7.92441e-18
7.78951e-18
7.9012e-18
8.00586e-18
7.67622e-18
7.96603e-18
7.70423e-18
7.76875e-18
8.01874e-18
7.5631e-18
8.08353e-18
7.9624e-18
7.86176e-18
7.79961e-18
8.10249e-18
8.05318e-18
8.14477e-18
7.93341e-18
8.03617e-18
7.80758e-18
8.1645e-18
8.45135e-18
7.8243e-18
8.50582e-18
8.0841e-18
8.02283e-18
8.24346e-18
8.57865e-18
8.62704e-18
8.23511e-18
8.57237e-18
8.50635e-18
8.51e-18
8.7432e-18
8.36624e-18
8.63973e-18
8.62204e-18
8.7968e-18
8.74735e-18
8.61669e-18
8.9293e-18
8.93068e-18
8.69734e-18
9.20975e-18
8.89553e-18
8.95451e-18
8.97633e-18
9.42187e-18
8.86092e-18
9.31317e-18
8.85915e-18
9.45289e-18
9.17506e-18
9.1345e-18
9.52107e-18
9.24343e-18
9.15998e-18
9.75032e-18
8.81712e-18
9.4349e-18
9.60848e-18
9.31965e-18
9.51671e-18
9.49258e-18
9.55148e-18
9.63254e-18
9.40787e-18
9.7955e-18
9.29891e-18
9.51685e-18
9.59445e-18
9.7415e-18
9.91588e-18
9.2622e-18
9.68213e-18
9.92773e-18
9.71838e-18
9.56602e-18
9.65926e-18
9.96855e-18
9.77157e-18
9.79964e-18
9.47828e-18
9.64293e-18
9.55471e-18
9.63074e-18
9.68259e-18
9.87016e-18
9.78717e-18
9.68835e-18
9.86001e-18
9.44072e-18
9.60772e-18
9.63635e-18
9.53323e-18
9.78492e-18
9.60158e-18
9.66954e-18
9.58587e-18
9.54574e-18
9.85228e-18
9.40798e-18
9.59023e-18
9.35889e-18
9.99202e-18
8.99227e-18
9.90734e-18
9.22825e-18
9.3199e-18
9.58146e-18
9.8124e-18
9.35186e-18
9.2102e-18
9.48521e-18
9.3406e-18
9.49957e-18
9.55651e-18
9.36193e-18
9.19792e-18
9.28162e-18
9.54706e-18
9.4383e-18
9.31121e-18
8.69453e-18
9.85904e-18
9.19002e-18
9.37234e-18
9.0158e-18
9.39424e-18
9.10537e-18
9.35031e-18
9.27439e-18
9.15677e-18
9.27821e-18
8.70541e-18
9.20417e-18
9.11211e-18
9.2749e-18
9.00881e-18
9.61243e-18
9.02306e-18
9.23092e-18
9.0352e-18
9.1119e-18
9.01308e-18
9.37839e-18
9.01464e-18
8.99282e-18
9.29336e-18
9.45282e-18
8.83179e-18
9.05883e-18
9.18885e-18
8.98095e-18
8.93939e-18
9.09974e-18
9.08988e-18
9.2265e-18
9.17883e-18
9.17357e-18
9.09602e-18
8.75412e-18
9.30813e-18
9.00722e-18
9.30687e-18
8.94385e-18
9.43671e-18
9.44957e-18
8.85467e-18
9.02529e-18
9.2901e-18
9.17003e-18
9.09771e-18
9.43507e-18
9.4628e-18
9.00406e-18
9.1034e-18
9.26948e-18
9.26716e-18
9.34467e-18
9.17905e-18
9.0475e-18
9.41473e-18
9.28271e-18
9.30086e-18
9.48816e-18
9.12414e-18
9.31074e-18
9.51688e-18
9.10876e-18
9.3697e-18
9.40077e-18
9.60636e-18
9.27823e-18
9.26751e-18
9.36767e-18
9.36067e-18
9.57252e-18
9.27429e-18
9.43347e-18
9.24465e-18
1.84037e-17
1.97491e-17
1.80679e-17
1.85827e-17
1.86986e-17
1.85297e-17
1.86435e-17
1.9033e-17
1.76625e-17
1.79199e-17
1.69867e-17
1.80733e-17
1.81294e-17
1.67951e-17
1.70514e-17
1.72948e-17
1.65485e-17
1.74047e-17
1.66693e-17
1.63589e-17
1.62847e-17
1.62969e-17
1.61732e-17
1.64333e-17
1.57879e-17
1.66486e-17
1.60083e-17
1.55483e-17
1.55655e-17
1.56945e-17
1.52956e-17
1.4975e-17
1.54393e-17
1.47051e-17
1.50464e-17
1.56499e-17
1.47759e-17
1.52151e-17
1.48663e-17
1.44405e-17
1.49629e-17
1.4416e-17
1.47164e-17
1.51216e-17
1.40377e-17
1.4808e-17
1.49169e-17
1.45162e-17
1.44837e-17
1.50868e-17
1.4386e-17
1.44077e-17
1.46547e-17
1.39261e-17
1.46757e-17
1.43775e-17
1.41117e-17
1.48459e-17
1.42347e-17
1.42607e-17
1.44934e-17
1.48962e-17
1.44333e-17
1.4674e-17
1.43238e-17
1.50091e-17
1.38867e-17
1.51047e-17
1.45667e-17
1.52392e-17
1.47819e-17
1.46127e-17
1.46827e-17
1.51586e-17
1.53361e-17
1.52179e-17
1.51817e-17
1.47932e-17
1.55285e-17
1.57399e-17
1.46158e-17
1.49828e-17
1.52265e-17
1.60412e-17
1.54252e-17
1.5363e-17
1.56832e-17
1.60969e-17
1.58196e-17
1.61136e-17
1.6055e-17
1.58227e-17
1.62263e-17
1.62868e-17
1.59192e-17
1.61951e-17
1.66903e-17
1.67484e-17
1.61906e-17
1.61484e-17
1.67844e-17
1.63563e-17
1.74426e-17
1.6713e-17
1.70237e-17
1.69286e-17
1.68865e-17
1.76082e-17
1.73943e-17
1.72052e-17
1.71879e-17
1.77211e-17
1.75406e-17
1.72761e-17
1.74367e-17
1.79992e-17
1.69786e-17
1.74313e-17
1.80275e-17
1.77599e-17
1.77861e-17
1.78565e-17
1.70676e-17
1.82133e-17
1.82691e-17
1.79515e-17
1.79457e-17
1.79882e-17
1.78879e-17
1.83829e-17
1.76941e-17
1.87039e-17
1.71382e-17
1.85917e-17
1.78593e-17
1.85028e-17
1.80974e-17
1.80494e-17
1.77383e-17
1.86451e-17
1.79372e-17
1.82793e-17
1.76142e-17
1.87371e-17
1.80487e-17
1.87031e-17
1.7454e-17
1.78922e-17
1.84667e-17
1.7925e-17
1.80748e-17
1.77606e-17
1.83361e-17
1.80727e-17
1.73863e-17
1.80463e-17
1.82595e-17
1.78098e-17
1.79471e-17
1.82395e-17
1.71721e-17
1.78081e-17
1.84138e-17
1.74255e-17
1.82031e-17
1.74977e-17
1.79343e-17
1.7132e-17
1.79849e-17
1.77152e-17
1.7888e-17
1.73073e-17
1.75707e-17
1.76697e-17
1.75695e-17
1.74877e-17
1.74904e-17
1.70768e-17
1.70892e-17
1.75234e-17
1.78284e-17
1.72363e-17
1.75657e-17
1.69215e-17
1.71583e-17
1.67924e-17
1.74136e-17
1.73247e-17
1.74683e-17
1.67686e-17
1.73103e-17
1.72477e-17
1.69478e-17
1.74191e-17
1.70903e-17
1.69355e-17
1.72342e-17
1.67267e-17
1.68807e-17
1.67945e-17
1.70875e-17
1.6961e-17
1.76178e-17
1.6729e-17
1.76571e-17
1.61592e-17
1.74272e-17
1.74015e-17
1.63944e-17
1.70869e-17
1.78068e-17
1.69238e-17
1.63803e-17
1.73116e-17
1.72835e-17
1.67823e-17
1.6873e-17
1.7029e-17
1.70401e-17
1.73994e-17
1.6859e-17
1.70569e-17
1.72206e-17
1.69682e-17
1.75832e-17
1.67737e-17
1.6955e-17
1.73266e-17
1.69302e-17
1.76094e-17
1.69268e-17
1.74755e-17
1.73113e-17
1.70152e-17
1.71347e-17
1.72215e-17
1.75154e-17
1.75759e-17
1.64899e-17
1.77315e-17
1.70905e-17
1.7819e-17
1.70707e-17
1.71728e-17
1.7334e-17
1.78279e-17
1.70772e-17
1.78463e-17
1.74205e-17
1.74561e-17
1.79558e-17
1.69007e-17
1.75649e-17
1.75316e-17
1.85245e-17
1.66579e-17
3.35278e-17
3.62571e-17
3.49236e-17
3.53629e-17
3.48298e-17
3.65281e-17
3.33837e-17
3.33814e-17
3.35464e-17
3.37285e-17
3.27434e-17
3.12762e-17
3.19028e-17
3.2055e-17
3.22838e-17
3.3044e-17
3.064e-17
3.18187e-17
3.03263e-17
3.11976e-17
3.14225e-17
2.92943e-17
2.99824e-17
2.94149e-17
3.11083e-17
2.96815e-17
2.89634e-17
2.92478e-17
2.87163e-17
2.86639e-17
2.80289e-17
3.04954e-17
2.84231e-17
2.8838e-17
2.79679e-17
2.69163e-17
2.88425e-17
2.75383e-17
2.83264e-17
2.75826e-17
2.69545e-17
2.82645e-17
2.71384e-17
2.65357e-17
2.66517e-17
2.69769e-17
2.74947e-17
2.69275e-17
2.62641e-17
2.78e-17
2.68524e-17
2.67937e-17
2.53552e-17
2.7212e-17
2.73669e-17
2.62926e-17
2.66921e-17
2.62892e-17
2.74775e-17
2.67082e-17
2.74638e-17
2.64397e-17
2.60962e-17
2.68497e-17
2.75299e-17
2.83707e-17
2.67364e-17
2.79024e-17
2.7103e-17
2.82368e-17
2.71448e-17
2.72039e-17
2.83994e-17
2.74903e-17
2.76332e-17
2.71691e-17
2.78658e-17
2.81791e-17
2.87282e-17
2.78482e-17
2.79859e-17
2.87501e-17
2.90456e-17
2.89633e-17
2.89327e-17
2.85102e-17
2.96929e-17
2.91024e-17
2.92564e-17
3.02477e-17
3.05246e-17
2.90769e-17
3.13352e-17
2.9098e-17
3.08529e-17
2.97078e-17
3.09278e-17
3.12641e-17
3.12454e-17
3.11702e-17
3.07054e-17
2.99501e-17
3.19157e-17
3.13238e-17
3.02756e-17
3.30406e-17
3.15554e-17
3.13666e-17
3.36457e-17
3.04129e-17
3.26348e-17
3.23098e-17
3.21969e-17
3.15008e-17
3.37168e-17
3.26982e-17
3.25803e-17
3.3226e-17
3.29881e-17
3.33827e-17
3.3324e-17
3.41371e-17
3.16821e-17
3.35563e-17
3.33684e-17
3.36068e-17
3.37959e-17
3.29345e-17
3.45107e-17
3.29933e-17
3.42235e-17
3.47588e-17
3.14012e-17
3.42461e-17
3.46402e-17
3.30465e-17
3.38544e-17
3.45477e-17
3.27639e-17
3.45971e-17
3.38007e-17
3.26323e-17
3.44626e-17
3.45524e-17
3.4299e-17
3.30897e-17
3.3791e-17
3.40411e-17
3.33634e-17
3.35947e-17
3.4136e-17
3.37217e-17
3.49316e-17
3.20852e-17
3.35494e-17
3.34666e-17
3.4041e-17
3.34184e-17
3.35175e-17
3.36862e-17
3.2275e-17
3.46789e-17
3.30038e-17
3.3041e-17
3.26844e-17
3.31583e-17
3.34157e-17
3.27503e-17
3.23893e-17
3.35631e-17
3.37214e-17
3.21226e-17
3.2831e-17
3.26159e-17
3.35359e-17
3.24455e-17
3.31428e-17
3.22584e-17
3.19936e-17
3.24995e-17
3.34605e-17
3.20142e-17
3.23906e-17
3.2049e-17
3.26556e-17
3.20932e-17
3.24681e-17
3.22476e-17
3.17463e-17
3.24777e-17
3.22306e-17
3.26689e-17
3.14431e-17
3.17803e-17
3.21132e-17
3.23941e-17
3.31027e-17
3.10347e-17
3.19237e-17
3.20827e-17
3.16276e-17
3.20836e-17
3.12872e-17
3.28074e-17
3.25451e-17
3.02108e-17
3.16346e-17
3.21971e-17
3.19767e-17
3.05436e-17
3.16372e-17
3.23217e-17
3.119e-17
3.20644e-17
3.15851e-17
3.2894e-17
3.14272e-17
3.19009e-17
3.16009e-17
3.24018e-17
3.2188e-17
3.06438e-17
3.18592e-17
3.29929e-17
3.18453e-17
3.19772e-17
3.12597e-17
3.1743e-17
3.25033e-17
3.22996e-17
3.16641e-17
3.21002e-17
3.22935e-17
3.19401e-17
3.11518e-17
3.21423e-17
3.26823e-17
3.21685e-17
3.20597e-17
3.22125e-17
3.27769e-17
3.19886e-17
3.38116e-17
3.17372e-17
3.19557e-17
3.40244e-17
3.20288e-17
3.14011e-17
3.29157e-17
3.24361e-17
3.33678e-17
3.31532e-17
3.27617e-17
3.19771e-17
3.34817e-17
3.30354e-17
6.35238e-17
6.72923e-17
6.67645e-17
6.39142e-17
6.79063e-17
6.47028e-17
6.26687e-17
6.43079e-17
6.21731e-17
6.34512e-17
6.22741e-17
6.33872e-17
6.1393e-17
5.7214e-17
6.13434e-17
5.97866e-17
5.9932e-17
6.17075e-17
5.67857e-17
5.91486e-17
5.82542e-17
5.81929e-17
5.64235e-17
5.77164e-17
5.65858e-17
5.73021e-17
5.65152e-17
5.45409e-17
5.44451e-17
5.35191e-17
5.69324e-17
5.41445e-17
5.04778e-17
5.00184e-17
5.26363e-17
5.47264e-17
5.42251e-17
5.24347e-17
4.9357e-17
5.28654e-17
5.10857e-17
5.29124e-17
5.55219e-17
5.00596e-17
4.98476e-17
5.19965e-17
4.93986e-17
5.03168e-17
5.30597e-17
5.14032e-17
5.01315e-17
5.04771e-17
5.22277e-17
5.30803e-17
5.00144e-17
4.99542e-17
5.13627e-17
5.24302e-17
4.92718e-17
5.00065e-17
4.91499e-17
5.10862e-17
5.0157e-17
5.03333e-17
5.03259e-17
4.86818e-17
5.07629e-17
5.10673e-17
5.14713e-17
4.98296e-17
5.08898e-17
5.24831e-17
5.31469e-17
5.21533e-17
5.16751e-17
5.44281e-17
5.37899e-17
5.23965e-17
5.25814e-17
5.33588e-17
5.4392e-17
5.37718e-17
5.17837e-17
5.48573e-17
5.38652e-17
5.27337e-17
5.49361e-17
5.45715e-17
5.49387e-17
5.43743e-17
5.54934e-17
5.49549e-17
5.6678e-17
5.49973e-17
5.55461e-17
5.5318e-17
5.80964e-17
5.9356e-17
5.74415e-17
5.59011e-17
5.9143e-17
5.84881e-17
5.75599e-17
6.01227e-17
5.65762e-17
6.07201e-17
5.70277e-17
5.97068e-17
6.15104e-17
5.9282e-17
5.85413e-17
6.01025e-17
6.12816e-17
5.98247e-17
6.12754e-17
6.12378e-17
6.0543e-17
6.08003e-17
6.31368e-17
5.84096e-17
6.2701e-17
6.45143e-17
6.19594e-17
6.14831e-17
6.33154e-17
6.23127e-17
6.25389e-17
6.35928e-17
6.22789e-17
6.30996e-17
6.19766e-17
6.27617e-17
6.27836e-17
6.34481e-17
6.3658e-17
6.29898e-17
6.27081e-17
6.39642e-17
6.34068e-17
6.1992e-17
6.37029e-17
6.2795e-17
6.46172e-17
6.37985e-17
6.21966e-17
6.33412e-17
6.36592e-17
6.2936e-17
6.04755e-17
6.55495e-17
6.29486e-17
6.27688e-17
6.40777e-17
6.35073e-17
6.16513e-17
6.47161e-17
6.19583e-17
6.15421e-17
6.39859e-17
6.13886e-17
6.2878e-17
6.18546e-17
6.11731e-17
6.38172e-17
6.175e-17
6.0612e-17
6.26389e-17
6.19728e-17
6.13779e-17
6.00349e-17
6.3177e-17
6.23626e-17
6.04532e-17
6.05232e-17
6.23027e-17
6.11254e-17
6.00398e-17
6.37256e-17
6.05365e-17
5.94015e-17
5.77108e-17
6.43025e-17
5.97288e-17
6.03645e-17
6.10716e-17
6.03456e-17
6.10864e-17
5.79904e-17
6.10834e-17
6.02792e-17
5.88301e-17
6.04859e-17
5.84471e-17
6.02547e-17
5.97566e-17
5.89896e-17
6.22463e-17
5.84533e-17
6.01235e-17
5.90538e-17
5.79632e-17
5.94335e-17
5.98068e-17
6.10726e-17
5.9851e-17
5.78748e-17
6.00935e-17
6.00853e-17
5.99183e-17
5.82982e-17
5.84932e-17
6.00436e-17
5.95988e-17
5.95309e-17
5.91267e-17
6.04368e-17
5.94895e-17
6.12802e-17
5.82742e-17
5.92235e-17
5.94952e-17
5.89222e-17
6.0364e-17
5.97227e-17
5.96259e-17
5.94378e-17
5.97134e-17
6.09283e-17
5.9318e-17
5.96254e-17
5.91695e-17
6.148e-17
5.98284e-17
5.97642e-17
6.06696e-17
5.82774e-17
6.17306e-17
6.01669e-17
5.98542e-17
6.13287e-17
6.00095e-17
5.9168e-17
6.24241e-17
5.90504e-17
6.32096e-17
5.8656e-17
6.34583e-17
5.86424e-17
6.06072e-17
5.9597e-17
6.23179e-17
6.23521e-17
6.01975e-17
6.12472e-17
6.19225e-17
6.32214e-17
1.1687e-16
1.2942e-16
1.27563e-16
1.23219e-16
1.25129e-16
1.22346e-16
1.27204e-16
1.20584e-16
1.1435e-16
1.15759e-16
1.1651e-16
1.2134e-16
1.13682e-16
1.19288e-16
1.08947e-16
1.12966e-16
1.16095e-16
1.13062e-16
1.09906e-16
1.07518e-16
1.03556e-16
1.08474e-16
1.05754e-16
1.08241e-16
1.01456e-16
1.08275e-16
1.05478e-16
1.02858e-16
1.03176e-16
1.03134e-16
9.94291e-17
1.06832e-16
1.04477e-16
9.88864e-17
1.0036e-16
1.0106e-16
9.9722e-17
9.59657e-17
1.01e-16
9.72266e-17
9.25778e-17
9.86957e-17
9.61231e-17
9.3887e-17
9.66045e-17
9.32463e-17
9.65625e-17
9.55378e-17
9.82564e-17
9.73489e-17
9.03771e-17
9.48997e-17
9.28613e-17
9.26713e-17
9.33736e-17
9.13264e-17
9.66186e-17
9.23113e-17
9.4332e-17
1.00599e-16
9.14212e-17
9.85252e-17
9.43746e-17
9.48305e-17
9.28493e-17
9.60159e-17
9.31761e-17
9.68778e-17
9.25769e-17
9.71167e-17
1.0092e-16
9.48076e-17
9.20577e-17
9.78063e-17
9.52234e-17
9.83794e-17
9.92667e-17
9.68752e-17
9.82639e-17
9.84921e-17
9.75037e-17
1.01847e-16
9.74734e-17
1.0616e-16
1.02683e-16
9.90118e-17
1.03886e-16
1.00628e-16
1.0167e-16
1.02832e-16
1.02569e-16
1.04641e-16
1.08092e-16
1.03628e-16
1.07295e-16
1.04887e-16
1.07404e-16
1.07349e-16
1.05347e-16
1.07505e-16
1.10192e-16
1.03746e-16
1.07951e-16
1.10461e-16
1.09785e-16
1.10786e-16
1.1156e-16
1.12477e-16
1.12695e-16
1.08779e-16
1.12286e-16
1.13759e-16
1.11834e-16
1.15115e-16
1.1149e-16
1.16656e-16
1.13991e-16
1.15587e-16
1.16234e-16
1.08855e-16
1.20403e-16
1.13466e-16
1.15247e-16
1.13718e-16
1.17259e-16
1.1971e-16
1.14238e-16
1.16074e-16
1.21107e-16
1.16707e-16
1.16296e-16
1.15951e-16
1.18468e-16
1.18255e-16
1.17518e-16
1.17179e-16
1.16066e-16
1.18924e-16
1.18699e-16
1.19816e-16
1.179e-16
1.17554e-16
1.19199e-16
1.15616e-16
1.20765e-16
1.18584e-16
1.17496e-16
1.16067e-16
1.22446e-16
1.19308e-16
1.14085e-16
1.19282e-16
1.17822e-16
1.16731e-16
1.15003e-16
1.21039e-16
1.19475e-16
1.13724e-16
1.19416e-16
1.16003e-16
1.1597e-16
1.16284e-16
1.18864e-16
1.14262e-16
1.17267e-16
1.14668e-16
1.17081e-16
1.14864e-16
1.16103e-16
1.15478e-16
1.15883e-16
1.15107e-16
1.15978e-16
1.10828e-16
1.15717e-16
1.14867e-16
1.13095e-16
1.1617e-16
1.12018e-16
1.12975e-16
1.15978e-16
1.1482e-16
1.08909e-16
1.12729e-16
1.12962e-16
1.14824e-16
1.12369e-16
1.09725e-16
1.13776e-16
1.15886e-16
1.09271e-16
1.1295e-16
1.12927e-16
1.09863e-16
1.14982e-16
1.08943e-16
1.08641e-16
1.11335e-16
1.1071e-16
1.12347e-16
1.11641e-16
1.0955e-16
1.11265e-16
1.14722e-16
1.07399e-16
1.11433e-16
1.12281e-16
1.0949e-16
1.13802e-16
1.11011e-16
1.08419e-16
1.1191e-16
1.12047e-16
1.07675e-16
1.10732e-16
1.11068e-16
1.09504e-16
1.1417e-16
1.09827e-16
1.13414e-16
1.11406e-16
1.10937e-16
1.09393e-16
1.09078e-16
1.14262e-16
1.12504e-16
1.09902e-16
1.09437e-16
1.1091e-16
1.10325e-16
1.15968e-16
1.0979e-16
1.14197e-16
1.11211e-16
1.12815e-16
1.12282e-16
1.1293e-16
1.11853e-16
1.1166e-16
1.11796e-16
1.12841e-16
1.12047e-16
1.14384e-16
1.16936e-16
1.10803e-16
1.10044e-16
1.19104e-16
1.11657e-16
1.14114e-16
1.12267e-16
1.14772e-16
1.15341e-16
1.16487e-16
1.1379e-16
1.11613e-16
1.16968e-16
2.35709e-16
2.37785e-16
2.32791e-16
2.30262e-16
2.29836e-16
2.22291e-16
2.31882e-16
2.31381e-16
2.21829e-16
2.29875e-16
2.2762e-16
2.29479e-16
2.24022e-16
2.18613e-16
2.10002e-16
2.09788e-16
2.05164e-16
2.11861e-16
2.03073e-16
2.00565e-16
2.05604e-16
2.08909e-16
1.96045e-16
2.05199e-16
2.05348e-16
1.99684e-16
1.95256e-16
1.99108e-16
1.89885e-16
1.90122e-16
1.85512e-16
1.96862e-16
1.97455e-16
1.87494e-16
1.86207e-16
1.90198e-16
1.86121e-16
1.83696e-16
1.77727e-16
1.79509e-16
1.78035e-16
1.84286e-16
1.85866e-16
1.73844e-16
1.80242e-16
1.82028e-16
1.73187e-16
1.68734e-16
1.71596e-16
1.81486e-16
1.70752e-16
1.76848e-16
1.79258e-16
1.7822e-16
1.81618e-16
1.73195e-16
1.80479e-16
1.77383e-16
1.73335e-16
1.74658e-16
1.78746e-16
1.7768e-16
1.79258e-16
1.78452e-16
1.76828e-16
1.75578e-16
1.75914e-16
1.80611e-16
1.72832e-16
1.77487e-16
1.77986e-16
1.81096e-16
1.7546e-16
1.85638e-16
1.79878e-16
1.79662e-16
1.82216e-16
1.81817e-16
1.79231e-16
1.86522e-16
1.80881e-16
1.88209e-16
1.80769e-16
1.79359e-16
1.91645e-16
1.8386e-16
1.87616e-16
1.87447e-16
1.89422e-16
1.90211e-16
1.86281e-16
1.95507e-16
1.90022e-16
1.89638e-16
1.991e-16
1.99773e-16
1.93264e-16
1.97099e-16
1.9821e-16
1.99592e-16
1.96454e-16
2.00961e-16
2.062e-16
1.98652e-16
2.04712e-16
2.01995e-16
2.0459e-16
2.04883e-16
2.02534e-16
2.11566e-16
2.14631e-16
2.05091e-16
2.03188e-16
2.17914e-16
2.13272e-16
2.13403e-16
2.10243e-16
2.1054e-16
2.21316e-16
2.07692e-16
2.22567e-16
2.08345e-16
2.13116e-16
2.15858e-16
2.20467e-16
2.10566e-16
2.23741e-16
2.21745e-16
2.19343e-16
2.1126e-16
2.21612e-16
2.2385e-16
2.15382e-16
2.22135e-16
2.22619e-16
2.19263e-16
2.15609e-16
2.22423e-16
2.25639e-16
2.19802e-16
2.20998e-16
2.16554e-16
2.22943e-16
2.23123e-16
2.18693e-16
2.18855e-16
2.27384e-16
2.08922e-16
2.3254e-16
2.23155e-16
2.11811e-16
2.20256e-16
2.22598e-16
2.18587e-16
2.14384e-16
2.2652e-16
2.14905e-16
2.18885e-16
2.21885e-16
2.13491e-16
2.20278e-16
2.22269e-16
2.22066e-16
2.13451e-16
2.19025e-16
2.16423e-16
2.18366e-16
2.11612e-16
2.16778e-16
2.1824e-16
2.13437e-16
2.19614e-16
2.16027e-16
2.10292e-16
2.14065e-16
2.20591e-16
2.07779e-16
2.19266e-16
2.11696e-16
2.07663e-16
2.20073e-16
2.15049e-16
2.06514e-16
2.12404e-16
2.18108e-16
2.03649e-16
2.15875e-16
2.04828e-16
2.10953e-16
2.16823e-16
2.0841e-16
2.08396e-16
2.09884e-16
2.07181e-16
2.09426e-16
2.11364e-16
2.01736e-16
2.16351e-16
2.08403e-16
2.08374e-16
2.04103e-16
2.13618e-16
2.03417e-16
2.10633e-16
2.04909e-16
2.03367e-16
2.14369e-16
2.05542e-16
2.07312e-16
2.14054e-16
2.02022e-16
2.07077e-16
2.06027e-16
2.07127e-16
2.10303e-16
1.98415e-16
2.13849e-16
2.10288e-16
2.0319e-16
2.07543e-16
2.07592e-16
2.09231e-16
1.96726e-16
2.17695e-16
2.0847e-16
2.07846e-16
2.0793e-16
2.1012e-16
2.08705e-16
2.07583e-16
2.0766e-16
2.13128e-16
2.0725e-16
2.04683e-16
2.09026e-16
2.16511e-16
2.04275e-16
2.07838e-16
2.06232e-16
2.08541e-16
2.14239e-16
2.12877e-16
2.07025e-16
2.16576e-16
2.09053e-16
2.06465e-16
2.13087e-16
2.16462e-16
2.13054e-16
2.11793e-16
2.14939e-16
2.13254e-16
2.12083e-16
2.08177e-16
2.1625e-16
2.12213e-16
4.20504e-16
4.31713e-16
4.71128e-16
4.65276e-16
4.518e-16
4.35585e-16
4.11887e-16
4.28406e-16
4.34852e-16
4.03509e-16
4.11049e-16
4.09435e-16
3.94229e-16
4.07423e-16
4.00081e-16
3.8229e-16
4.0322e-16
3.93508e-16
3.8282e-16
3.96941e-16
3.82139e-16
3.84805e-16
3.76451e-16
3.829e-16
3.82529e-16
3.68053e-16
3.75942e-16
3.63049e-16
3.52341e-16
3.6238e-16
3.63401e-16
3.59335e-16
3.42939e-16
3.60408e-16
3.5223e-16
3.60946e-16
3.37518e-16
3.52761e-16
3.57851e-16
3.49371e-16
3.45454e-16
3.27702e-16
3.39884e-16
3.3628e-16
3.41962e-16
3.46401e-16
3.40237e-16
3.45183e-16
3.31963e-16
3.3829e-16
3.26196e-16
3.34731e-16
3.4015e-16
3.35058e-16
3.28948e-16
3.24893e-16
3.29281e-16
3.26989e-16
3.22678e-16
3.20269e-16
3.53818e-16
3.2813e-16
3.19538e-16
3.40288e-16
3.29283e-16
3.25836e-16
3.25714e-16
3.25574e-16
3.25945e-16
3.27915e-16
3.32312e-16
3.26266e-16
3.34523e-16
3.3721e-16
3.4289e-16
3.36059e-16
3.35233e-16
3.40026e-16
3.30746e-16
3.53051e-16
3.29587e-16
3.46031e-16
3.48402e-16
3.49421e-16
3.53343e-16
3.42765e-16
3.5819e-16
3.58541e-16
3.51891e-16
3.46341e-16
3.54758e-16
3.5737e-16
3.66589e-16
3.63511e-16
3.74809e-16
3.59495e-16
3.56363e-16
3.76192e-16
3.82034e-16
3.76388e-16
3.68156e-16
3.8219e-16
3.82056e-16
3.6909e-16
3.73235e-16
3.81547e-16
3.86214e-16
3.77242e-16
3.89243e-16
3.84496e-16
3.81294e-16
3.79012e-16
3.85951e-16
4.02716e-16
4.00402e-16
3.89638e-16
3.94893e-16
3.85479e-16
4.06976e-16
3.91361e-16
4.12979e-16
4.0567e-16
4.0617e-16
3.94351e-16
4.12891e-16
3.99666e-16
4.12095e-16
4.03538e-16
3.96596e-16
4.24631e-16
4.01587e-16
4.17346e-16
3.99339e-16
4.13096e-16
4.0687e-16
4.12101e-16
4.21924e-16
4.08567e-16
4.10198e-16
4.08998e-16
4.16028e-16
4.25718e-16
4.1812e-16
3.99204e-16
4.00435e-16
4.23922e-16
4.12794e-16
4.11318e-16
4.16427e-16
4.12276e-16
4.01509e-16
4.17536e-16
4.117e-16
4.07668e-16
4.059e-16
4.20332e-16
4.08392e-16
4.06391e-16
4.10385e-16
4.06982e-16
3.9994e-16
4.2265e-16
4.00078e-16
4.07577e-16
4.14438e-16
4.01386e-16
4.08314e-16
4.01188e-16
4.03474e-16
4.07238e-16
4.03461e-16
4.04832e-16
3.9982e-16
4.00633e-16
3.90126e-16
4.07995e-16
3.93989e-16
4.0847e-16
3.92477e-16
3.94658e-16
4.01782e-16
3.94429e-16
3.97613e-16
3.98421e-16
4.0096e-16
3.92852e-16
4.01535e-16
3.72689e-16
3.99699e-16
3.98841e-16
3.85634e-16
3.89914e-16
3.93324e-16
3.96748e-16
3.87542e-16
3.92217e-16
3.82579e-16
3.99682e-16
3.83496e-16
3.98705e-16
3.83085e-16