# vtk DataFile Version 1.0
Net Charge Density
ASCII
DATASET STRUCTURED_POINTS
DIMENSIONS 256 128 1
ORIGIN 0 0 0
SPACING 0.15625 0.15625 1
POINT_DATA 32768
SCALARS rhonet float
LOOKUP_TABLE default
-3.89607e-06
-9.51275e-05
0.000144792
9.6322e-05
3.56846e-05
0.000120451
-0.000118445
9.18577e-05
0.000154216
2.2899e-05
-3.75608e-05
0.000108726
0.00010382
7.94451e-05
0.000109347
4.99606e-05
8.77432e-05
0.000140236
4.05875e-05
-6.79099e-05
-6.4068e-06
0.000141859
0.000144767
4.77826e-05
3.72683e-05
2.07424e-05
7.7422e-05
9.05893e-05
-1.35214e-05
-7.27426e-05
5.23025e-05
3.97232e-05
4.36689e-05
6.9008e-05
1.24415e-05
0.000171713
1.68073e-05
7.28727e-05
7.73575e-05
-5.53019e-06
2.2932e-05
6.83218e-06
0.000136404
9.39814e-05
2.09394e-05
1.86833e-05
-3.16133e-05
6.95544e-05
0.000116214
7.88724e-05
-1.20075e-05
2.49781e-05
8.34425e-05
0.000148995
3.5595e-05
1.75037e-05
0.000151011
-5.17473e-05
5.67851e-06
7.16955e-05
5.02793e-05
6.06017e-05
7.16769e-06
8.01797e-05
8.22493e-05
-8.03834e-05
4.41823e-05
0.000136175
4.09954e-05
4.82837e-05
7.92337e-05
3.67112e-05
-2.69156e-05
4.96677e-05
-1.15018e-07
5.11558e-05
4.20858e-05
-3.83081e-05
9.21617e-05
0.000106615
8.71844e-05
2.54083e-05
7.49616e-05
0.000101106
4.54681e-05
-4.47989e-06
-1.66909e-05
6.70489e-05
0.000119669
-2.34882e-05
9.00029e-05
-1.47951e-05
-3.90527e-05
-6.21448e-06
-8.99179e-05
5.22719e-05
0.000157961
2.40973e-05
9.16881e-05
-2.49445e-05
0.000157724
9.09185e-05
-3.16964e-06
9.47256e-05
3.90385e-05
0.000130971
-2.58442e-07
-6.85496e-05
2.66219e-06
7.39995e-05
0.00013342
5.79278e-05
2.02983e-05
3.31153e-05
8.04218e-05
4.36594e-05
1.22658e-05
7.49688e-05
5.09599e-05
4.32276e-05
-3.98806e-05
-3.45629e-05
4.04443e-05
2.44895e-05
0.00011572
6.60876e-05
1.82549e-05
8.13094e-05
1.99639e-05
-1.88098e-05
0.000119796
9.2616e-05
-2.24414e-06
3.77487e-05
2.0324e-05
6.79679e-06
4.46094e-05
-3.19167e-05
4.68967e-05
-1.15032e-05
-4.98408e-05
2.32952e-05
2.0962e-05
0.000160761
9.88223e-05
2.06335e-06
0.000137836
1.15247e-05
-3.11241e-05
0.000132418
1.78274e-05
2.91317e-05
0.000108428
-8.34558e-06
3.45046e-05
4.32306e-05
5.74661e-06
3.42712e-05
-5.27641e-06
1.75426e-05
7.67782e-05
2.50083e-05
0.000112709
-2.20693e-05
3.25852e-05
2.55231e-05
5.84617e-05
-6.12723e-05
0.000105449
0.000137296
2.50291e-05
4.32236e-05
7.45818e-05
0.000111579
-2.02684e-05
-8.13347e-06
8.72933e-05
-8.2322e-05
1.15572e-05
3.31802e-05
8.87692e-05
-7.06001e-05
-3.1811e-05
5.65406e-06
1.04991e-05
7.98532e-05
4.14198e-05
7.20927e-05
0.000102554
7.46852e-05
2.48839e-05
0.000198125
8.1612e-05
-6.56995e-05
6.24199e-05
0.000201229
4.7522e-05
8.32754e-05
7.86667e-05
-1.63086e-05
5.95988e-05
0.00014917
4.39014e-05
3.83351e-05
-1.00755e-05
6.97707e-05
-5.98885e-05
5.34233e-05
6.86798e-05
8.57899e-05
6.81023e-05
0.000137439
0.000106097
-2.40527e-05
0.000111081
-0.00013128
0.000102691
9.90945e-05
-5.28727e-05
-3.79212e-05
8.69744e-05
0.000114877
0.000176992
3.40521e-05
7.95295e-05
5.67447e-05
-3.69134e-05
-1.51404e-05
8.69038e-05
6.86072e-05
6.22775e-06
4.16546e-05
2.36379e-05
2.60697e-05
0.000121307
-3.557e-05
-2.0577e-05
2.75011e-05
5.94514e-05
8.979e-06
1.84989e-05
8.66938e-05
-5.82669e-05
-3.0722e-07
2.65902e-05
-1.44092e-05
-2.21957e-05
-3.95466e-05
0.000128655
-4.29619e-06
2.10482e-05
-3.85127e-05
0.000102294
2.14382e-05
2.40528e-05
4.18617e-05
-0.0001049
2.47048e-05
-6.30281e-05
-2.51193e-05
-2.38868e-05
5.12257e-05
-2.60446e-05
-7.57634e-05
4.98928e-05
-6.6046e-05
-4.29002e-05
2.3341e-05
-5.99083e-05
-8.02728e-05
3.002e-06
-4.24266e-05
4.66232e-06
1.08911e-05
-2.15754e-05
-4.06022e-06
-5.82075e-05
-6.74943e-05
-0.000106138
-1.79205e-05
-2.00453e-05
-5.72717e-05
-2.52763e-05
7.73044e-06
-3.07411e-05
-8.53869e-05
-3.53891e-05
-8.36118e-06
2.74421e-05
-7.95685e-05
-6.6748e-05
2.31331e-05
-0.000103178
-3.3788e-05
1.98346e-05
-8.20332e-05
-5.15862e-05
-4.38415e-05
8.67259e-06
3.55993e-05
-2.47125e-05
4.87384e-06
-0.000112385
-3.1517e-05
3.88798e-05
-3.39411e-05
-6.5613e-05
-4.11929e-05
-3.17375e-05
2.98234e-05
-2.85318e-05
-3.54571e-05
-2.34868e-05
-0.000116111
1.48102e-05
-3.37932e-05
4.56308e-05
-5.12688e-05
-5.72852e-05
-3.73456e-05
-3.01474e-05
-6.05673e-05
-1.00291e-05
-7.96346e-05
-0.000109192
1.21043e-05
-4.39812e-05
9.01741e-06
-1.8436e-05
1.7242e-05
-5.13544e-05
-1.04336e-05
4.76097e-05
-2.5494e-05
5.74088e-05
2.16532e-07
-3.24122e-05
-5.04438e-05
-8.22555e-05
2.84831e-05
2.44665e-05
-6.1695e-05
-0.000158637
-4.16978e-05
-6.58911e-08
-1.69143e-05
8.77352e-06
5.33122e-05
3.15602e-06
-1.07941e-05
2.47138e-05
-5.96559e-06
3.43234e-05
-2.73113e-05
-6.84685e-06
-1.89501e-06
-4.36434e-05
-0.000106617
-3.96518e-05
-2.96773e-05
-3.55599e-05
1.6422e-05
-5.91248e-05
-4.27184e-05
-1.06718e-06
-5.99946e-06
5.43519e-05
-3.54243e-05
-7.13803e-05
-7.13194e-05
4.01699e-05
1.15475e-05
-5.23517e-05
-1.11547e-05
9.64513e-06
3.18992e-05
-8.57747e-05
1.39618e-05
-6.13792e-05
-7.74197e-06
-3.48634e-05
-1.67098e-05
-4.55657e-05
-6.9603e-05
1.7025e-05
-4.88107e-05
-2.07964e-05
1.59817e-05
-1.05533e-05
-2.35443e-05
-1.24411e-05
-3.31048e-05
-4.60125e-05
-1.33581e-05
-4.22456e-05
-8.32323e-06
-5.94475e-05
-7.82575e-05
8.69716e-06
-2.01969e-06
-8.38249e-05
1.05486e-05
-3.22355e-05
-4.36765e-05
-0.000117681
-8.72556e-06
-3.9958e-05
-3.8308e-05
-7.16744e-05
9.37073e-06
3.00051e-05
-1.70409e-05
-2.39995e-05
-1.85589e-06
-5.11226e-05
-2.02565e-05
-8.1349e-05
-6.40947e-05
3.62425e-05
-8.02709e-05
-7.5635e-06
2.37455e-05
2.21166e-05
-5.27812e-05
-2.42493e-06
3.60706e-05
-9.46564e-05
1.02376e-05
-2.21479e-05
3.97032e-05
-4.13514e-05
-2.55484e-05
-5.70051e-06
3.04059e-05
-6.90699e-05
-4.77679e-05
3.67508e-05
-4.79643e-06
2.05869e-06
-4.8656e-05
-0.000107547
-6.60247e-05
-2.66002e-05
-2.24793e-05
-9.32987e-06
-1.88577e-05
-0.000101449
6.32298e-06
3.69594e-05
4.61051e-06
-1.0849e-05
-2.36549e-05
-8.50846e-05
-3.9091e-05
4.81101e-05
-6.97782e-06
-7.51882e-05
-6.4628e-05
-4.37896e-05
3.07563e-05
-5.53511e-05
1.83051e-06
-5.12166e-05
9.71673e-05
1.17975e-05
-4.14064e-05
-5.22409e-05
-4.83998e-05
-4.73994e-05
3.21254e-05
-3.50834e-05
-7.29871e-05
1.69827e-06
-2.53879e-05
-1.98884e-05
4.50609e-06
-1.732e-05
7.05676e-05
5.70896e-05
-6.70664e-05
-3.48981e-05
-2.73384e-05
-7.0205e-05
-2.06066e-05
2.42675e-05
8.58865e-05
-8.70347e-05
6.93486e-06
-4.34534e-05
-3.62701e-05
6.9032e-05
3.75882e-05
-6.27581e-05
-4.99131e-06
2.55419e-05
-5.11213e-05
2.26246e-05
-1.34824e-05
-4.80209e-05
-1.98239e-05
3.0552e-06
3.73246e-05
3.42681e-05
-1.23482e-05
-2.31676e-05
-0.000132199
-1.67056e-07
-7.60634e-06
5.12579e-05
-7.35314e-06
-7.36318e-05
5.01669e-06
-3.30425e-05
-1.99128e-06
5.00253e-05
-7.79761e-06
-2.33892e-05
-8.48004e-06
1.05402e-06
-1.92291e-05
7.13236e-05
-5.15232e-05
7.82299e-06
3.11632e-05
6.53436e-05
-4.67901e-05
-2.90639e-05
-1.14907e-05
-2.4957e-05
-9.34284e-05
-2.04819e-05
3.51591e-05
4.88632e-05
3.64077e-05
-1.64525e-05
3.777e-05
6.1458e-05
-4.75248e-05
4.48453e-05
4.40086e-05
9.82254e-06
-5.10868e-05
1.23073e-05
2.3444e-05
7.043e-05
4.96684e-05
-3.57151e-05
2.25287e-05
5.27385e-06
-2.51166e-05
4.80089e-05
3.40394e-05
2.11629e-05
-2.89198e-05
-7.34264e-05
2.16754e-05
3.48729e-05
1.4212e-06
-4.63355e-05
1.81713e-06
-1.65711e-05
5.22437e-05
1.92709e-05
-4.25107e-05
-9.05945e-05
6.88399e-06
2.94286e-05
9.43267e-06
3.90759e-05
-4.01761e-05
2.79772e-05
-3.30701e-05
9.02751e-05
1.87058e-05
2.19357e-05
-2.38945e-05
3.89216e-05
7.95068e-05
-1.43005e-06
-1.07866e-05
-4.31228e-05
-5.63427e-05
3.65557e-05
5.69131e-06
-2.97661e-05
3.18509e-05
-3.75104e-05
-1.97687e-05
6.36957e-05
5.06416e-05
-4.80586e-05
-4.18769e-05
-9.31206e-06
-2.6356e-05
-1.33659e-05
5.09447e-05
7.41066e-05
-1.38805e-05
-5.5213e-05
-6.02392e-05
2.25466e-05
4.01654e-05
-3.56468e-05
4.60863e-05
6.0403e-05
1.0042e-05
-2.72854e-05
-6.84022e-05
1.03844e-05
-3.90667e-05
-6.6731e-05
1.89329e-05
-3.8665e-05
-7.26082e-05
1.55345e-05
3.44659e-05
-9.18168e-06
-2.52384e-05
3.49986e-05
6.71943e-05
-7.81426e-06
-2.34847e-05
1.90873e-05
-3.45566e-05
-3.24706e-06
3.17625e-05
-4.33623e-05
-4.4457e-05
-1.2916e-05
6.1907e-05
-1.54721e-05
-1.92424e-05
-9.33651e-07
1.07803e-05
-2.67865e-05
6.43285e-05
6.28293e-07
3.16115e-05
-3.45439e-05
-2.02109e-05
3.29809e-05
-8.92964e-06
-5.33775e-05
-6.58381e-05
-1.97737e-05
2.38314e-06
3.65474e-05
8.36782e-06
-1.87813e-06
1.48288e-05
-2.75736e-05
4.24772e-05
2.79524e-05
9.69107e-05
6.6583e-05
1.94265e-05
1.45669e-05
-1.36637e-05
5.90174e-05
5.77695e-05
-3.53304e-05
8.65564e-05
-1.88483e-05
-2.10219e-05
-5.39364e-05
1.12342e-05
-1.22988e-05
7.03161e-05
-1.07868e-05
6.14906e-06
5.7793e-05
3.47514e-05
-3.56393e-05
-5.85592e-06
4.38271e-05
2.99957e-05
1.48881e-05
3.09444e-06
-6.29973e-05
1.44138e-05
-9.34462e-05
4.10877e-05
-3.34159e-05
-7.29717e-05
6.78643e-06
-4.31377e-05
3.26065e-05
-5.40693e-05
-3.51892e-05
-7.38096e-06
-3.46785e-05
7.78132e-06
5.28588e-05
1.66988e-05
-1.61515e-06
7.61892e-05
-2.89583e-06
5.279e-05
3.3099e-05
2.69054e-05
3.20115e-05
-4.14011e-05
-7.91214e-05
6.70366e-06
-3.71062e-05
3.38652e-07
3.12878e-05
2.55895e-05
4.62431e-05
-7.34441e-06
3.85575e-05
-1.8248e-05
8.60398e-05
-3.51763e-05
-2.42104e-05
-2.44786e-05
3.96878e-05
3.96363e-05
-5.59608e-06
-1.59818e-05
5.26491e-05
-3.12821e-05
-9.51311e-06
1.32089e-05
3.03083e-05
4.01441e-05
-6.21299e-05
6.55768e-06
-4.02803e-05
7.68164e-05
-2.3057e-05
2.42714e-06
-2.36239e-05
-7.65675e-06
1.05589e-06
-7.58456e-05
1.89049e-05
4.24924e-05
2.73308e-06
-4.68809e-05
-0.000111356
2.32973e-05
1.92827e-05
1.6694e-06
4.11419e-05
-1.26262e-05
3.11411e-06
-2.15394e-05
-7.41892e-05
3.57798e-05
1.81663e-05
-4.43208e-05
1.3806e-05
2.4942e-05
-1.40065e-05
-5.45266e-05
-1.59668e-05
4.84831e-05
-4.49945e-06
-0.000139602
5.79737e-05
3.08061e-05
0.000100899
-3.72754e-05
3.82721e-05
1.96726e-05
-2.19459e-05
-3.16999e-05
-3.15023e-05
5.79795e-05
8.84754e-05
-9.06712e-06
-5.99885e-05
9.2187e-06
8.46398e-06
-1.88593e-08
-2.07848e-05
-3.90378e-05
0.000130275
-3.43213e-05
-4.70523e-05
5.37115e-05
-2.79653e-06
2.82261e-06
-3.79191e-05
-6.05405e-05
4.75422e-05
4.84358e-05
-1.75373e-05
3.74636e-05
-5.19104e-05
4.18172e-05
3.39495e-05
-6.99726e-05
2.73657e-05
3.88061e-05
1.6781e-05
-5.26784e-05
6.28686e-05
-2.19624e-05
-4.31008e-05
-7.40332e-06
-2.66789e-05
4.25468e-05
3.64997e-06
2.75731e-05
-4.73876e-05
-6.4373e-06
3.03095e-05
-2.263e-05
-8.1934e-05
-4.9582e-05
1.36232e-05
3.36366e-05
4.5352e-05
-3.78168e-05
6.72047e-05
-2.02061e-05
-6.23035e-05
4.747e-05
4.6276e-05
1.24052e-05
3.82882e-05
2.15033e-05
5.87145e-05
-6.50007e-05
-4.25666e-05
-1.34123e-05
4.39062e-05
4.78703e-05
-2.23203e-05
-6.05178e-05
1.98302e-06
-2.43739e-06
-3.00115e-05
1.48918e-05
2.92045e-05
7.28867e-05
7.06639e-05
-3.58255e-05
-0.000140628
2.58456e-05
1.2035e-06
-2.88256e-05
-4.69701e-05
5.72428e-05
3.12584e-05
1.75566e-05
-0.000107817
-1.58469e-05
1.13324e-05
3.9952e-05
3.28142e-05
-4.30102e-05
3.20368e-05
3.74889e-05
-3.91935e-05
2.83313e-05
3.71942e-05
-1.37141e-05
3.56366e-05
-5.44162e-05
8.30449e-05
3.03243e-05
-1.94269e-05
-2.67293e-05
6.84275e-05
4.12179e-05
-2.91597e-05
3.35346e-05
3.92135e-05
3.6837e-05
-3.48371e-05
-2.8152e-05
1.41669e-05
3.52948e-05
-7.15668e-05
-2.1616e-05
4.60054e-05
3.64995e-05
2.31861e-05
-3.12356e-05
-7.13484e-05
2.25479e-05
-3.52726e-05
7.69855e-05
-4.16436e-05
-1.37864e-05
7.45141e-05
-5.4067e-05
4.00399e-06
-1.77844e-05
-5.58052e-05
2.01231e-05
5.95977e-06
5.05815e-05
6.31161e-05
-6.58261e-05
8.14187e-05
-4.32235e-05
-2.44334e-05
2.67201e-05
4.39421e-06
9.56818e-06
7.65524e-06
4.39119e-06
-4.2216e-05
2.17033e-05
1.01279e-05
-1.56354e-05
-7.88141e-05
-2.79717e-05
-7.33172e-06
2.62831e-05
6.22845e-06
2.38398e-05
-8.04104e-06
5.2616e-05
3.00965e-05
-3.07952e-05
-8.68588e-05
1.14741e-05
3.87328e-05
1.11607e-05
-2.85621e-05
-9.12463e-06
-2.48128e-06
2.21184e-05
-3.22983e-06
2.53448e-05
2.25464e-05
3.20964e-05
-2.0874e-05
-3.06265e-06
6.05534e-06
-3.41376e-06
3.49664e-05
-2.44873e-05
5.34733e-05
1.96631e-05
1.27886e-05
-1.15687e-05
2.92532e-05
2.87069e-06
3.39589e-05
-1.87167e-05
-2.88629e-06
-6.90416e-05
2.46686e-05
-5.03904e-06
-1.26839e-05
2.05985e-05
-2.63402e-05
-2.6616e-06
-3.02471e-05
-7.38935e-05
-1.16543e-05
0.000124286
-9.6718e-05
2.30566e-05
4.08882e-05
1.12088e-05
1.89695e-05
2.2975e-05
-6.50401e-05
-1.85563e-05
-3.58938e-05
9.88785e-06
-2.25083e-05
-0.000114619
5.06437e-05
-0.000120174
-5.21555e-05
0.000129995
-2.8554e-05
-3.29318e-05
1.39812e-05
-3.08803e-06
-4.58444e-06
-6.87173e-05
5.01052e-07
2.5406e-05
-3.06811e-05
-4.83695e-05
-2.09837e-05
3.77459e-05
3.9908e-05
1.09903e-05
-3.37758e-05
2.43064e-05
4.91922e-05
4.58607e-05
-7.13925e-05
-6.57423e-05
-4.48681e-05
5.14658e-05
2.45101e-06
-1.54716e-06
-6.96706e-05
3.42727e-07
-1.04236e-05
6.89435e-06
-2.29041e-05
-2.35578e-06
-3.06218e-05
3.27419e-05
-3.22692e-06
-1.0337e-05
-2.52561e-05
2.8462e-05
9.52233e-05
-3.02619e-05
3.21713e-05
4.43812e-05
-4.54091e-05
-0.000101101
-3.30776e-05
0.00011101
6.25442e-05
-5.2828e-05
-0.000107186
-1.18127e-05
6.85672e-05
3.46119e-05
-5.40467e-05
-5.21381e-05
4.75171e-05
-4.06369e-05
-0.000119436
6.12034e-05
-1.81564e-05
-3.11723e-05
0.000105493
-4.54729e-05
-9.2944e-05
-5.38457e-05
9.50554e-06
-5.54994e-05
1.67228e-05
4.28176e-06
-7.23698e-05
6.52415e-06
4.5925e-05
6.77747e-06
-2.06695e-06
5.32218e-05
2.83385e-05
-3.75981e-05
-4.85514e-05
0.000104193
-1.62809e-05
-5.72763e-06
-2.96999e-05
-2.67266e-06
-4.58119e-05
8.22765e-06
-1.31112e-05
-4.38886e-05
-3.3671e-05
-5.49548e-05
4.80608e-05
-3.43903e-05
5.50933e-05
-3.26771e-05
-2.49939e-05
-9.60962e-06
3.26965e-05
-4.34383e-05
8.21739e-05
3.99037e-06
1.01075e-05
-2.64164e-05
-1.68546e-06
5.18316e-05
-5.05229e-05
7.65342e-05
-2.69972e-05
-2.84479e-05
5.25336e-06
1.91294e-05
5.75276e-05
-1.55075e-05
1.41475e-05
1.54795e-05
9.67543e-05
-2.60591e-05
2.79758e-06
-6.86487e-05
-4.36453e-06
5.35557e-06
-6.22822e-07
-1.12273e-05
2.76116e-05
-7.06451e-05
2.38863e-05
3.64636e-05
-5.86128e-06
-1.47324e-05
5.85363e-05
-1.46357e-06
5.05475e-07
-8.36339e-06
-6.6882e-05
-7.4585e-06
-5.66773e-05
5.49146e-05
-1.55683e-05
-6.51169e-05
1.93971e-05
-2.5009e-05
1.49551e-05
4.44495e-05
-8.87865e-06
-5.64915e-05
-7.07044e-05
-8.34162e-06
-2.96301e-05
-2.15298e-06
-1.83212e-05
-1.8928e-06
-0.000102778
8.74815e-06
3.2482e-05
3.07963e-05
-0.000103662
-3.61558e-05
2.02425e-05
8.39111e-05
4.75312e-06
-1.31457e-05
3.19694e-05
7.1479e-07
-3.7137e-05
-7.51378e-05
-6.92121e-05
-2.21247e-06
-7.09705e-05
1.36672e-06
-4.37521e-05
5.21006e-05
-3.20335e-05
-2.11226e-05
9.38191e-06
-1.06078e-06
4.85103e-06
-2.59293e-05
5.72978e-05
-2.03839e-05
4.02209e-05
1.71231e-05
-4.36114e-05
4.79119e-06
-4.09898e-05
-3.49013e-07
2.30945e-05
-3.31623e-05
1.34481e-05
1.2359e-05
-2.61038e-05
-4.6381e-05
1.17684e-05
-4.40206e-05
0.000100773
4.16172e-05
5.95754e-05
5.72728e-06
3.63542e-06
3.72168e-05
-2.83865e-05
-2.65327e-05
-3.87036e-05
-3.32441e-05
-2.94461e-06
-4.83496e-06
-7.42383e-05
-9.21182e-05
-4.12923e-05
9.36037e-05
1.79687e-05
2.46144e-05
5.07894e-05
-3.90918e-05
-4.86934e-05
-6.07769e-05
2.91874e-05
-7.01525e-05
2.39776e-05
5.71006e-05
1.43808e-05
-8.5445e-05
6.4892e-05
5.64149e-06
1.15011e-05
-0.000120717
5.33743e-05
7.36074e-05
5.39131e-06
1.38732e-05
1.18414e-05
-9.65141e-06
3.66954e-05
-3.0343e-05
4.71817e-05
6.17246e-05
-4.68153e-06
-4.04327e-05
-2.984e-05
4.8338e-06
-1.19221e-06
4.36949e-05
-1.84914e-06
-1.13774e-05
-1.70614e-05
7.82479e-05
-4.5842e-06
1.79143e-05
-3.62855e-05
-7.78633e-05
7.38347e-05
-9.1931e-05
-5.20772e-06
2.09282e-05
2.30595e-06
7.05892e-05
3.83814e-05
7.42101e-06
5.50146e-05
-1.01442e-05
4.60944e-05
-1.68374e-05
-5.88747e-05
-4.9189e-05
5.14216e-05
5.45888e-05
-1.9853e-05
5.81008e-05
3.02006e-05
1.38805e-05
2.24966e-05
6.25562e-05
6.90203e-06
-8.80082e-05
-1.34251e-05
-5.00749e-06
4.87003e-05
5.9925e-05
6.30915e-05
1.42679e-06
2.14428e-05
-2.66383e-05
-9.90473e-06
-6.22044e-05
-1.60283e-05
3.25947e-05
-3.85359e-05
-1.90414e-05
5.31547e-05
-2.28165e-05
1.54099e-05
-4.23555e-05
-5.64614e-07
-5.11484e-05
-1.0791e-05
-0.000114607
2.06348e-05
1.91701e-05
7.28536e-05
2.73277e-05
-4.94906e-05
5.05786e-05
5.27869e-05
6.42e-05
-7.98982e-06
4.43973e-05
-4.86512e-05
-2.5887e-05
-3.12887e-05
9.76644e-05
-4.46024e-05
-4.87098e-05
2.70449e-05
-5.04581e-05
1.36546e-05
-9.01836e-05
-0.000131356
6.04797e-05
5.67491e-05
-1.70096e-05
2.47733e-05
-9.10845e-06
5.16702e-05
-8.06587e-05
3.82913e-05
3.78342e-05
1.59068e-05
-7.97585e-06
-6.65523e-06
3.57421e-05
3.1377e-05
-9.32622e-05
-4.72956e-05
-9.38075e-05
-4.97692e-05
6.84744e-05
-3.54393e-05
9.1457e-06
-3.66229e-05
3.87211e-05
1.69347e-05
4.47606e-05
-5.40492e-05
2.94938e-05
6.61321e-05
1.22414e-05
-6.64289e-05
1.1333e-06
1.48165e-05
-1.36934e-05
6.08948e-05
-9.09087e-07
7.8931e-05
9.09669e-06
5.26163e-05
-9.66373e-05
3.41134e-05
6.60541e-06
-1.27821e-05
-4.43455e-05
-2.06702e-05
3.1502e-06
-9.30857e-07
-6.30615e-05
-0.000100799
-4.15875e-05
-9.15083e-05
-4.81864e-05
5.62919e-05
-1.52455e-05
-5.22905e-05
-2.41197e-05
-1.08292e-05
-4.57689e-05
-4.23098e-05
1.19051e-05
2.83611e-05
-1.41364e-05
-5.28243e-05
-6.13476e-05
1.77321e-05
1.07324e-05
-2.08274e-05
5.96306e-05
1.7907e-06
2.51202e-05
-2.36353e-05
5.88675e-05
3.18955e-05
4.76101e-05
-7.31893e-05
7.22467e-05
-0.000100922
-6.24079e-06
6.49309e-05
8.48912e-06
3.2307e-05
-3.30678e-06
-4.322e-05
2.37837e-06
1.99964e-05
-1.2729e-05
9.59379e-06
3.61394e-05
2.75432e-05
6.92138e-05
-2.72423e-06
-6.3224e-05
-6.14556e-06
-7.611e-06
-1.02108e-05
4.45037e-05
5.20132e-06
2.67313e-05
-6.63009e-06
-4.79852e-06
-2.94804e-05
1.43548e-05
5.68933e-06
6.79195e-05
9.01218e-06
3.43908e-05
1.84246e-05
1.29037e-05
-4.46523e-05
3.45937e-05
3.36552e-05
1.93855e-06
-1.88093e-05
4.46875e-05
-5.23899e-05
6.75367e-05
7.7465e-05
6.37199e-06
8.13847e-05
-3.18103e-05
2.20665e-05
-1.73566e-05
-2.87807e-05
-6.86577e-05
1.19236e-05
2.47909e-05
1.23704e-05
-3.48672e-05
2.16775e-05
-2.20754e-05
-3.52552e-06
1.23349e-05
1.70933e-06
2.97131e-05
-6.88559e-05
-1.33733e-05
9.18956e-05
-3.43515e-05
1.47283e-05
-1.23637e-05
4.94571e-05
2.42066e-05
-4.44688e-05
5.05934e-05
0.000106778
9.66932e-05
6.52503e-05
8.89879e-07
-7.20704e-06
-1.14569e-05
6.66901e-05
-5.448e-06
4.01789e-05
-2.33981e-05
4.17557e-05
-3.41269e-05
-2.13976e-05
6.28107e-06
-2.6264e-05
3.58208e-05
-8.93144e-05
4.69465e-05
-3.5755e-05
3.30247e-05
2.34637e-05
-9.97119e-05
2.21337e-05
3.57017e-05
-1.87461e-05
2.13266e-05
-6.78233e-05
2.71619e-05
-5.16978e-05
5.68142e-05
4.88436e-05
-1.7481e-05
3.80412e-05
4.5417e-05
1.17874e-05
-8.38004e-06
2.07495e-05
-2.05641e-05
5.28253e-05
-7.57066e-05
-4.2627e-05
-7.67282e-06
2.04986e-05
-1.54355e-05
-3.12327e-05
1.17398e-05
6.21653e-05
4.88086e-05
4.33624e-06
-0.00012757
-5.02242e-05
-6.86675e-05
-6.60999e-05
3.09134e-05
7.6151e-05
-7.01358e-05
-7.03009e-06
9.28552e-06
4.82399e-05
3.84008e-06
8.47317e-06
-6.75763e-05
-1.8583e-05
1.21738e-05
-8.66817e-06
-3.19523e-05
-1.42832e-05
3.18408e-06
7.33021e-06
1.82409e-05
2.56515e-05
-6.78841e-05
-4.71435e-06
3.49288e-05
-5.05327e-05
1.07943e-05
-1.50148e-05
-1.63051e-05
-2.95395e-05
9.53885e-05
2.639e-05
-1.76689e-05
-2.15019e-05
-1.27995e-05
8.03266e-06
-1.35811e-05
2.63907e-05
-7.18504e-06
-1.90847e-05
2.17273e-05
5.39325e-05
-9.03436e-05
5.79043e-05
-1.44773e-05
-1.46052e-05
-3.83228e-05
-4.5439e-05
2.6162e-05
5.74819e-05
2.07163e-05
1.80586e-05
2.61939e-05
-7.22182e-06
-2.65967e-05
2.38708e-05
-3.81791e-05
-3.29989e-05
2.86612e-05
4.19572e-06
5.34139e-05
-1.2902e-05
-4.54625e-06
9.10496e-05
1.63319e-05
1.6914e-05
-4.63275e-05
3.5574e-05
-3.91719e-05
2.29458e-05
1.72227e-05
3.08629e-06
6.80585e-05
6.72811e-05
-1.70232e-05
-7.54686e-06
4.5586e-05
-1.23875e-05
-6.61262e-06
0.000122597
3.2628e-05
1.82132e-05
2.49493e-05
-5.22541e-05
-2.22394e-05
-5.70166e-05
1.30432e-06
7.69051e-06
2.41782e-05
1.07717e-05
-5.20681e-05
1.76707e-05
6.44932e-05
-6.11884e-05
5.44074e-05
-4.49324e-05
-7.05204e-05
6.2309e-06
3.27921e-05
4.70872e-05
1.32667e-06
1.32956e-05
-7.786e-05
-2.81831e-05
-6.89272e-06
0.000112601
3.68473e-05
-3.34259e-05
4.85625e-05
3.18348e-05
1.14888e-05
6.94901e-05
0.000133271
-7.38587e-05
-4.20368e-05
-1.68965e-05
2.04106e-05
8.13219e-06
-1.95543e-05
3.47551e-05
5.05908e-05
-6.30394e-05
-4.2269e-05
1.79624e-05
5.70349e-05
-6.66594e-07
2.83981e-05
-3.47802e-05
-8.23166e-05
-3.16929e-05
-5.51023e-05
-1.69483e-05
6.43992e-05
-5.57774e-05
5.25212e-05
-0.00011234
-7.10648e-05
-1.52229e-05
-1.6027e-05
-3.59302e-05
5.28321e-05
4.40272e-05
-4.7544e-06
-6.05781e-05
-2.03253e-05
1.72129e-05
2.40904e-05
-2.15005e-05
-3.80275e-05
1.84211e-05
-5.22968e-05
-1.48045e-05
-9.04258e-05
-1.86136e-05
-1.40988e-05
0.000121307
-2.54702e-05
5.2521e-05
3.7947e-05
3.11936e-05
-3.85308e-05
-5.10283e-06
-4.49657e-05
2.62953e-05
1.12429e-05
-1.86054e-05
1.74433e-05
-3.76218e-05
8.71113e-06
-3.17954e-05
7.14649e-05
-7.47014e-05
0.000101809
5.19647e-05
3.18051e-05
1.94152e-05
4.63655e-05
-3.00491e-06
1.62401e-05
7.99996e-05
3.67593e-06
-1.37989e-05
-5.21091e-05
-5.62188e-05
2.68223e-05
-3.78026e-05
-4.78228e-05
2.8863e-05
-2.68992e-05
-1.16546e-05
-5.02807e-05
3.10764e-05
-2.00598e-05
3.81088e-05
-8.71742e-05
-4.69049e-05
1.67186e-05
4.92434e-05
9.12778e-06
1.42597e-06
-6.6942e-05
-7.27302e-05
-1.4362e-05
-9.74454e-06
-1.56976e-05
2.67376e-05
-9.21226e-05
-5.88649e-05
-1.25874e-05
5.10602e-05
-8.97485e-05
7.8602e-05
1.309e-05
1.5168e-05
-0.000114672
-4.19712e-05
1.06477e-05
8.8416e-05
-6.75314e-06
-6.93102e-06
1.08081e-05
-9.15193e-05
-1.49584e-05
1.07784e-05
5.18084e-05
-3.28288e-05
4.25936e-05
9.43081e-06
7.85803e-07
4.03611e-05
-3.83449e-06
2.66724e-05
-2.21875e-05
6.11646e-07
2.16381e-06
1.83085e-05
-2.01637e-05
-7.52349e-05
-8.20155e-05
-4.08834e-05
3.06882e-05
3.11452e-05
-1.76033e-05
-1.149e-05
3.87505e-05
9.27458e-06
1.17535e-05
-4.4487e-05
-5.27484e-05
-4.26525e-05
9.60719e-05
-3.91061e-05
-6.17561e-05
-4.51244e-05
4.71994e-06
-4.15782e-05
-1.74774e-06
2.57666e-05
4.81142e-05
-3.50768e-05
2.89147e-05
3.42637e-05
2.19487e-05
-2.03149e-05
-2.84292e-05
2.95849e-05
6.23249e-05
1.81489e-05
-1.77096e-05
-4.22898e-05
-3.51807e-06
6.32219e-05
3.54648e-06
7.63207e-06
-5.29422e-06
1.01693e-05
2.74982e-05
2.91362e-05
-2.60758e-05
-5.97396e-05
8.67874e-05
3.29314e-05
-1.45726e-05
-1.42369e-05
5.72898e-05
3.8431e-06
9.81888e-05
0.000121367
-2.85939e-05
2.49977e-05
7.872e-06
-1.86709e-05
-1.70154e-05
-7.32375e-05
0.00011208
-1.25971e-05
-6.01783e-05
7.86281e-06
3.08841e-05
9.78401e-06
7.84069e-06
1.71367e-05
4.81959e-08
-2.67224e-05
-2.56808e-05
-4.13375e-05
-4.55837e-05
-1.76236e-05
-7.76607e-06
-4.82696e-05
7.13977e-05
1.64246e-05
3.01739e-05
-3.19597e-05
1.3984e-05
-1.394e-05
-1.55894e-05
4.47617e-06
-1.6586e-05
8.27658e-05
5.56016e-05
5.67222e-06
3.54119e-05
2.86195e-06
-1.63054e-05
2.07498e-05
9.63255e-06
-1.45013e-05
-4.88879e-05
-4.07478e-05
-9.69227e-06
4.12577e-05
-2.15803e-05
-3.41525e-05
5.64971e-05
-1.37318e-05
-5.04197e-05
3.84741e-05
-2.33626e-05
-1.19582e-06
-5.94468e-05
5.95243e-06
6.40077e-05
-7.39726e-05
-2.23715e-05
-4.28874e-06
-7.43163e-05
-1.58099e-05
5.60061e-05
-2.41022e-05
5.20144e-05
4.58722e-05
-3.16433e-05
0.000122277
2.89964e-05
1.20703e-05
-2.74094e-05
-3.44678e-05
-3.202e-05
5.98457e-05
4.27904e-05
-2.5427e-05
-1.62856e-05
4.25263e-05
4.55977e-05
-7.0805e-05
-4.53839e-05
-1.75919e-05
6.00133e-05
3.70806e-05
4.36979e-05
-7.64476e-06
2.17557e-05
1.4843e-05
1.47813e-05
3.49528e-05
1.44985e-05
-7.17351e-05
5.90801e-05
3.93527e-05
-1.62125e-05
4.7453e-05
-1.84557e-05
-3.84231e-05
8.46089e-05
5.78985e-05
5.29937e-05
-2.82947e-05
-1.40264e-05
-3.38175e-06
6.56864e-05
1.70164e-05
1.81664e-05
-1.4518e-05
-3.22154e-05
8.30204e-06
5.70645e-05
3.72084e-05
6.89622e-05
3.92863e-05
3.07858e-05
-1.59349e-05
4.17506e-05
8.47259e-06
-3.21826e-05
-1.0755e-05
-1.45924e-05
5.3932e-05
1.21891e-05
2.11236e-05
-2.64752e-05
1.12987e-05
-2.39077e-05
-1.44509e-05
1.0998e-05
-7.73487e-06
4.68991e-06
1.68589e-05
6.6706e-05
1.57992e-05
-0.00010758
-8.24988e-05
6.52322e-06
-5.85071e-05
5.17321e-05
1.84866e-05
1.66773e-05
-7.07677e-05
5.68514e-06
-1.86227e-05
-4.33432e-05
5.83276e-05
-4.15357e-05
-7.76728e-05
-1.33205e-05
-3.7475e-05
-1.09943e-06
5.06311e-05
3.43448e-05
5.21399e-05
2.95315e-05
4.7144e-05
-2.02373e-05
0.000134812
5.5166e-05
-3.82704e-05
-1.12216e-05
0.000111732
1.1283e-06
-1.38341e-05
-2.07325e-05
-1.05338e-05
5.75127e-06
2.51086e-05
-6.4718e-05
1.22248e-06
0.00011825
2.02318e-05
-6.9679e-05
-8.34574e-05
9.06892e-05
4.29545e-05
-6.09935e-05
-2.33727e-06
4.52413e-06
-2.48617e-05
-7.49839e-05
-6.3011e-06
3.39794e-05
6.28871e-05
-2.65893e-06
-2.97541e-05
-6.67726e-05
-1.08313e-05
7.42322e-06
3.03185e-05
-1.26918e-05
1.26481e-05
-3.24743e-05
-1.54031e-05
4.65959e-05
-6.0664e-07
-7.33231e-05
-3.61173e-05
3.19345e-05
5.07124e-05
5.52051e-05
-3.86608e-05
-2.71018e-05
-1.73191e-06
4.00438e-05
-1.28826e-05
1.15238e-05
2.75386e-05
1.51006e-05
2.02362e-05
3.27823e-05
-0.000103584
-2.37203e-05
5.62994e-05
-3.56047e-05
-8.56415e-05
0.000101618
-2.90701e-05
2.15793e-05
-5.19509e-05
6.29341e-06
-5.95583e-05
3.80224e-06
-4.01159e-05
2.21791e-05
-9.73791e-06
6.35828e-05
-2.76126e-05
-2.54388e-05
9.06732e-05
-5.55888e-05
-3.51445e-05
1.47807e-05
-2.30938e-05
3.46848e-05
-4.10147e-05
-1.09317e-05
2.98403e-05
3.45642e-05
-4.7846e-05
-5.78741e-05
-3.72983e-05
3.58615e-05
-1.02367e-05
-1.76756e-05
3.83478e-05
4.55021e-06
-3.07261e-05
-6.31746e-05
6.19027e-06
-5.68884e-05
0.000120349
-0.000117729
-6.80867e-05
1.01867e-05
-1.02158e-05
2.82163e-05
-1.96021e-05
-6.25558e-06
3.5075e-05
9.93174e-06
-5.96481e-05
5.40573e-05
-2.97574e-05
-7.25966e-07
-9.39087e-06
-2.64806e-05
5.89002e-05
9.3585e-05
7.9501e-05
-1.6892e-05
-6.82928e-05
-7.77043e-05
4.75618e-05
-1.31782e-06
1.17442e-05
5.16304e-05
-6.31505e-05
2.21427e-05
3.45726e-05
-3.89623e-05
4.92733e-05
9.85351e-06
-2.73691e-05
-7.1801e-05
-2.20747e-06
9.4123e-06
5.68595e-05
-2.01403e-05
-8.62172e-06
7.09004e-06
9.57283e-07
-2.91981e-05
-3.6772e-05
9.87086e-07
-7.08341e-06
-7.77066e-05
4.07128e-05
2.28042e-05
-2.33527e-05
-2.82733e-05
6.35569e-06
-3.1061e-05
-2.37788e-05
5.87656e-05
3.77758e-05
-8.88542e-05
1.88738e-05
2.82152e-05
2.42069e-05
-1.97266e-05
3.13714e-05
2.6772e-05
-2.78915e-05
-1.14411e-05
4.39796e-05
-1.84721e-05
6.2898e-06
-9.41602e-06
3.67078e-05
-1.65391e-05
-2.21907e-05
-3.26345e-05
2.11539e-05
-9.05292e-05
-2.25267e-05
7.17794e-06
-1.67803e-05
-5.1295e-05
-4.15262e-05
3.02582e-05
1.87581e-05
1.34514e-05
6.79971e-05
0.000103677
-2.68696e-05
-5.62217e-05
-7.36862e-06
-8.72929e-06
-8.22102e-06
-0.000119192
3.07658e-05
9.97079e-05
7.93554e-05
2.35235e-05
2.89548e-06
3.23565e-05
6.61926e-06
-1.27412e-05
-1.1237e-05
3.50201e-06
6.08938e-05
-6.73498e-06
5.99329e-05
-9.10764e-06
-4.93438e-05
-1.25011e-05
-1.7921e-05
3.4178e-05
-3.37977e-05
7.39493e-06
5.94531e-05
0.000102923
1.5897e-05
2.07336e-06
6.60841e-05
-5.49527e-05
-6.422e-05
4.83554e-06
5.86055e-05
-3.5362e-05
-0.000113618
-3.21862e-05
8.25257e-06
3.03725e-05
4.09503e-06
1.25874e-05
-2.57909e-05
4.03018e-06
-1.99423e-05
-0.000115459
-8.30356e-06
2.34317e-05
1.67685e-05
-9.89949e-06
-1.7794e-05
3.41056e-05
5.38377e-05
-8.89413e-07
-3.26864e-05
-1.44825e-05
1.08391e-05
2.86293e-05
1.41952e-05
-1.13221e-05
4.36332e-05
-9.70042e-06
4.36596e-05
-6.25988e-06
-6.49595e-05
8.33401e-05
7.37351e-06
-2.33589e-05
-5.29966e-05
8.21915e-06
-7.67079e-05
-5.47345e-05
1.69983e-05
-2.35284e-05
6.93037e-05
-5.89245e-05
-1.58965e-05
-3.797e-06
-4.36555e-05
1.75065e-06
6.90867e-06
-1.56341e-05
-1.26811e-05
-6.3139e-06
-2.87471e-05
6.35837e-05
-1.2737e-05
2.98875e-05
-1.94585e-05
0.00010666
-6.87316e-05
2.64228e-06
7.97833e-05
-7.28986e-05
-2.11627e-05
-1.82877e-06
-5.65487e-06
-3.07191e-05
-1.66707e-07
6.13099e-05
-4.53606e-05
-3.93705e-06
2.74231e-05
5.10005e-05
6.30133e-06
2.15232e-05
-5.93151e-05
-4.52381e-05
-4.5691e-05
-4.39741e-05
-2.38912e-05
-5.03425e-05
-2.24268e-05
-6.2891e-05
1.11947e-05
0.000117078
1.08849e-05
1.6035e-06
7.11554e-06
-1.24831e-05
-9.79607e-05
1.17273e-05
-2.43353e-05
-6.52869e-05
-4.5734e-05
9.77496e-05
-2.84505e-05
2.46855e-05
2.89709e-05
-3.39509e-05
9.19255e-05
-5.06382e-05
-3.14e-05
4.17931e-07
2.26256e-05
5.23948e-05
-4.63509e-05
3.01993e-06
-7.25875e-05
3.62423e-05
4.53801e-05
5.10276e-05
4.96124e-05
1.14613e-05
6.31448e-06
1.38574e-05
1.41445e-06
1.35631e-05
-5.94303e-05
-5.26089e-05
-3.14451e-05
3.68988e-05
-1.13028e-06
4.39305e-06
1.65974e-05
1.01095e-05
-4.56732e-05
-5.67073e-05
-2.16056e-05
3.75358e-06
3.02107e-05
2.47173e-05
-3.70548e-05
-4.68161e-05
-8.03268e-05
-3.89207e-05
8.46448e-05
4.35195e-05
1.98979e-05
-8.17608e-06
-6.95745e-06
-5.38756e-05
3.5844e-05
-6.18505e-05
7.90432e-05
-1.59481e-05
-3.99174e-05
-6.26172e-05
3.51216e-05
5.15335e-05
1.97056e-06
-3.47069e-06
-9.94955e-06
5.45724e-05
-4.35943e-05
-3.20034e-05
3.58509e-05
-2.33696e-05
-7.19365e-06
3.16279e-05
-2.36786e-05
4.79079e-05
6.116e-05
-1.5019e-05
5.8336e-05
-1.60112e-05
-5.55502e-05
-4.11177e-05
3.92948e-05
8.73663e-05
-9.01835e-06
2.39066e-05
5.31226e-05
-2.11829e-06
3.75926e-05
-6.11143e-05
-5.37824e-05
4.75647e-05
-2.97433e-05
-7.41604e-05
-1.30141e-05
3.8296e-06
-4.95901e-05
-1.00628e-05
1.48062e-05
3.36755e-06
-4.7756e-05
-3.26615e-05
4.7799e-06
4.40958e-05
4.0431e-05
-4.65775e-05
-4.65791e-05
9.95432e-06
6.58093e-05
1.77753e-05
-1.76018e-05
-0.000102062
4.74707e-05
-2.01664e-05
-7.77573e-06
-8.79902e-06
4.50329e-05
-5.59189e-06
-5.70056e-05
-1.93109e-05
-3.39666e-05
4.75908e-05
2.16509e-05
-2.22092e-05
-2.4779e-05
-2.54151e-05
-5.8905e-06
-1.15657e-05
-4.13181e-05
-4.02358e-05
1.20583e-06
-4.4826e-05
2.04248e-05
3.38058e-06
-2.82913e-05
3.0164e-05
9.34885e-06
-6.71297e-05
-4.0574e-05
7.09338e-05
-3.39556e-05
-2.67515e-05
2.17739e-05
1.56356e-05
1.4439e-05
-8.90158e-06
-1.19942e-05
1.44324e-05
8.70281e-05
-9.70205e-07
1.24231e-05
-5.59276e-05
-1.92777e-05
3.90809e-05
3.06952e-06
-4.05496e-05
7.567e-06
6.72847e-05
3.94988e-05
-7.47542e-05
-3.48643e-05
2.46888e-05
-5.16151e-05
3.76662e-06
-4.08548e-05
-1.83191e-05
8.32828e-05
-3.53502e-05
-3.56362e-05
-9.10182e-06
-2.37036e-05
-7.61577e-05
-4.31733e-05
-3.44522e-05
3.03325e-05
-5.93208e-05
-4.43432e-05
-1.38481e-05
2.80142e-05
4.43459e-05
7.11193e-06
-4.18164e-07
-3.37953e-05
5.63173e-05
4.62112e-05
-7.51622e-05
0.000106831
-4.85464e-05
-1.38166e-05
-8.41101e-07
-1.47609e-05
-6.57006e-05