# vtk DataFile Version 1.0
Net Charge Density
ASCII
DATASET STRUCTURED_POINTS
DIMENSIONS 256 128 1
ORIGIN 0 0 0
SPACING 0.15625 0.15625 1
POINT_DATA 32768
SCALARS rhonet float
LOOKUP_TABLE default
-8.89965e-05
-0.00016443
6.73251e-05
0.000180924
3.86301e-06
0.000191473
3.31744e-05
-3.29301e-05
0.000211425
0.00020405
2.30233e-05
0.000279595
0.000127751
-0.000183836
-0.000216213
0.000243326
0.000142679
-9.86999e-05
-2.87006e-05
2.38955e-05
4.87699e-06
0.000126141
-8.77731e-05
5.35579e-05
9.73926e-05
2.47739e-05
7.28207e-05
7.3313e-05
0.000266093
4.45559e-05
-0.000187995
-0.000141228
0.00013852
0.00019782
4.2005e-05
0.000104592
0.000146124
-7.05898e-05
3.89593e-05
2.23196e-05
0.000178941
0.000135081
8.85108e-05
0.000102748
0.000125257
6.33777e-06
2.51116e-05
8.20986e-05
5.31513e-05
0.000119897
0.000161602
-1.1104e-05
0.00015061
0.000179719
-9.16775e-05
-3.29586e-05
-3.99988e-05
0.000187686
0.000135206
0.000108327
-0.000173155
0.000276285
0.000165613
-3.84381e-05
-0.000121113
5.0191e-05
-8.66071e-05
0.000157549
1.5198e-05
-7.60974e-05
-6.64491e-05
-0.000151567
-3.41681e-05
0.000301609
7.66139e-05
-4.76977e-05
6.83877e-05
0.000145776
6.3415e-05
1.53662e-05
-0.000111347
-6.43473e-05
0.000307742
0.000107896
0.000156533
0.000151515
0.00018837
-0.000153581
0.000203115
0.000314539
8.47192e-05
-5.67471e-05
3.65078e-06
4.21897e-05
-1.17715e-05
0.000185573
-6.01254e-05
9.25148e-05
-0.000105055
0.000513904
0.000181121
-4.06471e-05
0.000103039
-1.57754e-05
1.81863e-05
0.000185247
1.56637e-05
-3.30393e-05
3.95839e-05
-5.65076e-05
9.67321e-05
0.000135004
-7.1015e-05
-0.000116246
-0.000293087
-1.20511e-05
0.000196575
0.000161801
1.39738e-05
-0.000188641
5.7463e-05
1.23901e-05
6.46162e-05
4.70169e-05
1.39864e-05
-2.69529e-05
8.53456e-05
2.44346e-05
0.000183679
2.48258e-05
3.65496e-05
0.000122553
9.48427e-05
-3.01065e-05
9.042e-05
5.78715e-05
0.000279149
0.000120272
0.000106484
-0.000217122
-4.58118e-06
6.54794e-05
-4.92646e-06
4.93006e-05
-3.99719e-05
0.00010235
0.000168811
-3.91199e-05
3.76488e-05
0.000252592
-8.82363e-05
-4.82016e-05
0.000177523
0.000274355
0.000128819
6.23011e-05
0.000135928
8.18435e-06
4.77406e-05
6.06261e-05
0.000130789
0.000107804
-8.37164e-05
9.6577e-05
-5.18436e-05
-0.000102244
0.000160799
0.00021839
0.000229294
4.46854e-05
-5.02178e-05
-2.03296e-06
-6.9323e-06
-3.22647e-05
9.88855e-05
0.000118852
0.000188594
-3.82809e-05
-0.000114186
9.30814e-05
0.000170247
0.000170585
-5.99468e-05
-0.000114894
3.01121e-05
0.000124835
0.000147015
0.000125633
0.000105981
0.000260402
0.000187681
0.000105557
7.29117e-05
-8.07226e-05
-0.000155445
0.00030499
0.000208997
3.35152e-05
0.000190698
6.13416e-06
7.67189e-06
1.51945e-05
0.000192278
8.82994e-05
-0.000104467
0.00014671
-5.74146e-05
-8.37957e-06
-8.24678e-05
0.000302362
-2.56731e-05
-0.00012002
0.00013921
0.000212545
-6.37467e-06
-5.47464e-05
3.51253e-05
5.77914e-05
4.46548e-05
0.000108325
-9.9318e-05
-0.000142599
0.000304249
8.57085e-05
-0.000139695
0.000208727
-8.71235e-05
6.99719e-05
-0.000209231
3.65508e-05
0.000211047
-0.000121397
-8.78271e-05
0.000243595
0.000104742
7.16867e-05
0.000175833
-8.4169e-05
0.000117093
0.000292926
3.00535e-05
-0.000198833
0.000113081
8.61072e-05
0.000117134
0.000126007
4.07926e-05
2.43264e-05
0.000117619
-7.49785e-06
6.64268e-05
-0.0001827
-1.10203e-05
-0.000116789
-5.03098e-05
0.000113212
9.38512e-05
7.1103e-06
-1.07265e-06
-0.000114282
1.30755e-05
-9.59648e-05
-0.000187829
-1.47215e-05
0.000141968
-0.000105542
-2.11769e-05
0.000159347
-6.05984e-05
-0.000104908
-0.000191294
-3.15246e-05
2.67867e-05
-8.83369e-05
2.81916e-05
6.03012e-05
-2.1112e-05
-0.000153984
-6.70948e-06
-0.000122243
-5.28994e-05
-0.000213783
8.63419e-05
2.43844e-05
1.32888e-06
-1.46826e-05
-4.76748e-05
0.000114568
-3.2409e-05
-5.6125e-06
-1.98613e-05
-3.6921e-05
-3.4828e-06
-0.000116265
-5.25552e-05
-1.27184e-06
-2.64918e-05
-0.000104853
-3.60252e-05
8.13336e-05
-0.000105781
-0.000144953
7.52908e-05
4.11218e-05
-2.63748e-05
3.98704e-05
-9.31578e-05
4.86263e-05
8.55653e-07
4.31889e-06
-0.000119127
-7.30145e-05
6.05754e-05
2.74994e-05
-0.000101008
6.03884e-05
-2.35749e-05
-0.000135273
-4.44602e-06
1.76306e-05
-0.000143069
5.91767e-05
-6.20331e-06
4.06073e-05
8.06642e-05
-7.99197e-05
3.64552e-05
-5.82082e-05
-9.3237e-06
5.90804e-05
4.19957e-05
3.69136e-05
-4.19618e-05
-5.43674e-05
3.41019e-05
-4.67337e-05
-0.0001537
-6.71793e-05
6.00312e-05
-4.68118e-05
-3.43901e-05
-8.82401e-05
4.55753e-05
-0.000176053
1.12822e-05
-0.00015407
-0.000127912
-9.47629e-05
-6.21467e-05
-4.80893e-05
5.24878e-05
-3.36836e-06
-0.000122984
4.30983e-05
-0.000154295
6.53996e-05
-0.00010901
-7.15223e-05
-5.46535e-05
0.000123682
-2.69085e-05
3.08172e-05
-0.000163153
0.000118408
-4.62128e-05
-0.000235137
-5.79351e-05
-7.1784e-05
-0.000163478
5.96766e-05
1.61472e-05
-7.24095e-05
2.98847e-05
-4.80516e-05
-4.58632e-05
-7.1962e-05
-3.38639e-05
-0.000109087
7.39486e-05
9.90357e-05
3.75018e-05
8.90733e-05
1.56956e-05
-6.02792e-05
2.84285e-05
-7.58176e-05
-6.37148e-05
0.000168836
-6.88587e-05
-0.000162257
2.27818e-05
1.59442e-06
-7.45545e-05
-0.000121428
-1.7772e-06
-0.000190662
0.00010786
0.000110056
-2.80039e-05
-1.88081e-05
-0.000179983
-8.35264e-05
9.678e-05
8.11368e-06
6.51635e-05
0.000115119
-8.75532e-05
-5.66706e-05
4.48849e-05
-0.000137129
-9.15058e-05
-0.000117078
7.77818e-05
-6.16319e-05
-7.80423e-05
-4.38609e-05
6.10384e-05
-0.000105036
5.42316e-05
3.28156e-05
8.62767e-05
-5.37981e-05
-4.06349e-05
1.56851e-05
-4.02809e-05
-0.000211141
2.38115e-05
0.000203273
-1.50739e-05
4.13629e-05
-8.67895e-05
-6.52749e-05
3.89047e-05
-0.000102638
1.51228e-05
-4.97354e-05
-2.76988e-05
2.26521e-05
-3.52246e-05
-0.000176033
-0.000125343
-3.13104e-05
-3.65893e-07
-0.000170566
-4.75532e-05
-5.78193e-05
-0.000183783
-2.11982e-05
5.88743e-05
5.74079e-06
-3.58104e-05
-5.22018e-06
-8.06735e-05
-0.000193738
-0.000104422
-3.91721e-05
4.235e-05
-9.05202e-05
-7.62015e-05
-8.52742e-06
0.000146161
-0.000152342
-5.96852e-05
9.52e-05
-0.000116925
9.23368e-05
-9.78983e-05
-1.47189e-05
0.000151847
2.3779e-05
-7.93703e-05
-2.82909e-05
-1.92877e-05
-2.44336e-05
-0.000142313
0.000105529
4.18113e-05
1.36641e-05
-1.15985e-05
-2.0469e-05
-2.06288e-07
-1.97638e-05
2.1121e-05
0.000109334
-0.000261438
4.28504e-05
4.00639e-05
-7.67e-05
-6.17964e-05
-1.02732e-05
-0.000159574
-8.18926e-05
7.35663e-05
-4.22967e-05
9.23174e-06
-1.98814e-05
9.94571e-06
-8.87201e-07
-5.61635e-05
-3.99556e-05
-5.35061e-05
-0.000102719
9.00062e-05
-0.000219845
-0.000120905
-5.90216e-05
4.97608e-05
-3.80765e-05
-1.36704e-05
-2.83052e-06
-8.34796e-05
1.19548e-05
-7.01747e-05
-3.17383e-05
1.34768e-05
5.83418e-05
-0.000137647
-8.99398e-05
0.000151386
1.51161e-05
-6.14126e-06
-0.000129066
3.1177e-05
0.000173844
-0.000137103
4.43445e-05
0.000100966
9.51369e-06
9.34256e-06
4.56322e-05
-4.52993e-05
0.0002318
-1.65906e-05
-9.65683e-05
0.000247102
-6.24573e-05
-9.62124e-05
4.41666e-05
-6.78144e-05
-9.39944e-05
-3.89074e-05
6.94153e-05
5.60172e-05
3.48883e-05
-0.000183194
5.50053e-05
9.55174e-05
2.66572e-05
-3.39592e-05
0.000120548
5.00318e-06
-7.52766e-05
0.000127643
-7.99587e-05
-8.11345e-05
-0.000202427
6.17071e-05
-9.95558e-05
-5.43232e-05
-5.9481e-05
-9.60132e-05
0.000116062
-0.000147444
1.14928e-05
-7.4331e-05
0.000155804
7.66393e-05
-6.99931e-05
7.37106e-05
-2.04375e-05
-8.9596e-05
9.62396e-05
-3.3834e-05
-3.49057e-05
4.17582e-05
0.000162895
3.636e-05
8.77914e-05
-3.58353e-05
-2.20581e-05
-3.02261e-06
-1.3713e-05
3.04271e-05
5.12839e-05
-1.66394e-05
-6.64192e-05
-0.000106226
-3.41025e-05
-0.000114615
-1.21309e-05
2.69823e-05
0.000152796
4.25633e-05
-6.62482e-05
1.30315e-05
0.000125127
-3.3629e-05
0.000125025
-3.74272e-05
-0.000105816
-9.70286e-05
0.000180479
2.01126e-05
3.31973e-05
4.16909e-05
0.000125363
-0.000130525
0.000146989
3.85047e-05
-9.22035e-05
-5.52763e-06
-2.8895e-05
-7.75096e-05
-0.00016559
-6.21087e-05
8.73234e-05
0.00013541
-5.54549e-05
8.27912e-05
8.54183e-05
0.000115635
-8.62868e-05
4.55806e-05
0.000119126
0.00018409
2.40584e-06
0.000137161
5.34619e-05
5.22609e-05
5.68458e-05
0.000167473
-5.51222e-05
-1.33795e-05
-4.05211e-05
-0.00012564
6.85595e-05
-1.32679e-05
3.22429e-05
-2.87499e-05
-4.65666e-05
-8.74827e-05
-7.05926e-05
7.68012e-05
-9.85495e-05
4.49251e-05
-7.86622e-05
9.82098e-05
-0.000145106
-0.000182992
0.000104833
-1.31573e-05
-7.5503e-05
0.000210965
-6.38556e-05
8.74361e-05
0.000118602
-0.000142688
0.000153399
0.000188842
-0.000133897
-3.04489e-05
-8.05346e-05
-1.98921e-05
-2.80344e-05
5.00238e-05
-0.000123372
-0.000185927
2.17028e-05
2.22625e-05
-4.22013e-05
8.2836e-05
-0.000114715
-1.43952e-05
-3.40613e-05
-0.00010146
3.65765e-05
-5.14563e-05
0.000108135
-1.38627e-05
-8.48664e-05
1.70887e-05
0.000166328
4.82557e-05
-0.000137476
-0.000130724
-9.48529e-06
4.53354e-05
-0.000128978
5.08637e-05
1.61452e-05
-0.000157478
0.000116752
-5.86524e-05
-9.88611e-06
2.70259e-05
5.98143e-05
5.88679e-05
7.47682e-05
-2.03853e-05
6.78025e-05
-9.19696e-05
-5.69085e-06
-0.000144547
0.00017434
-1.0379e-05
-3.03972e-06
3.54415e-05
7.37599e-05
5.43422e-05
-7.24925e-05
-4.39928e-05
-3.61342e-05
2.63093e-05
0.000149056
6.77116e-05
-0.000108175
2.75439e-07
-0.000102251
0.000191155
-4.93135e-07
2.48823e-05
1.41294e-05
-5.52986e-05
-0.000112945
1.6452e-05
5.99895e-05
-0.000104575
-2.01638e-05
-2.0616e-05
-2.06783e-05
2.71755e-05
3.29528e-05
9.95217e-05
-4.56776e-05
-3.40282e-06
3.48252e-05
5.44946e-05
4.12604e-05
0.000162434
-7.54967e-05
-7.04981e-05
-8.70787e-07
0.000148986
8.32418e-05
6.13603e-05
7.60481e-05
-1.61115e-05
-8.15629e-06
0.000102876
4.52767e-05
3.04892e-06
1.0299e-05
9.89577e-05
-6.89173e-05
3.38099e-05
7.08606e-05
-5.00826e-05
-0.000160351
2.85008e-05
-3.94695e-05
0.000187725
0.000159625
2.64987e-05
9.43411e-05
4.62709e-05
5.01308e-06
-5.53345e-06
0.000166531
-0.000108887
6.76436e-05
7.9785e-05
2.64236e-05
-3.33129e-05
-3.69876e-05
0.000154182
-0.000138619
-8.34806e-05
3.13434e-05
1.95613e-06
7.74228e-05
-8.67886e-05
-0.000106184
0.000124944
-3.27115e-06
3.75248e-05
9.6165e-05
-6.26927e-05
0.00019247
1.74739e-07
-0.000103404
-1.46432e-05
-7.02796e-05
0.000126966
-4.42553e-05
-3.12371e-05
-6.08348e-05
0.000185488
6.59458e-06
-2.88461e-05
2.55753e-06
-4.19506e-05
2.88812e-05
-7.87324e-05
-0.000245335
-4.55789e-06
1.4191e-06
-2.96714e-05
-0.000100693
6.97646e-05
9.95685e-05
2.10074e-05
9.20024e-05
0.000134083
6.70785e-06
-3.21709e-05
-1.0582e-05
0.000141856
-7.66038e-05
-3.02682e-05
-9.20403e-05
-5.64926e-05
-6.99648e-05
-1.04227e-06
-3.1268e-05
-1.0347e-05
-1.91765e-05
6.47374e-06
-1.19124e-05
1.18997e-05
-0.00012422
-0.000133447
2.95368e-05
2.01787e-05
7.01146e-05
-6.80159e-05
0.000112859
-5.64292e-05
-0.000102791
3.18148e-05
9.65793e-05
0.000142974
-0.00021521
-2.51562e-05
0.000155176
-7.0878e-05
-1.83494e-06
-9.00574e-05
-6.12382e-05
3.06271e-05
-2.73807e-05
0.000121417
-7.09179e-06
-0.000136559
5.42093e-05
-8.18283e-06
-8.82483e-05
-4.2076e-06
6.04577e-05
1.07265e-06
-0.000111192
-8.29694e-05
-0.000135972
-2.61223e-05
7.20014e-05
-0.000131597
2.96031e-05
2.28287e-05
-6.37447e-05
0.00025458
-1.29701e-05
-0.000103429
-5.66974e-05
-0.000126446
-7.45163e-06
9.4973e-05
-0.000134313
2.41236e-05
-7.8407e-05
9.75841e-05
3.62005e-05
9.45164e-05
2.15503e-05
-2.06134e-05
-3.88109e-05
-0.000148646
0.000226774
9.63685e-05
-7.63232e-05
2.8778e-05
8.776e-05
-8.39324e-05
-2.85243e-05
0.00010019
-0.000145642
7.67797e-05
4.41067e-05
6.33271e-05
3.54639e-05
-4.70191e-05
6.01048e-05
0.000238689
-1.13717e-05
1.32809e-05
4.61282e-05
9.35654e-05
0.000111443
6.89395e-05
4.29252e-05
5.7176e-05
-0.000123357
-2.57515e-05
2.09775e-05
-7.54538e-05
-5.30499e-05
3.71668e-06
-4.13257e-05
0.000107548
-7.4116e-05
-8.38636e-05
3.15658e-05
-0.000155529
-4.0594e-06
8.19244e-05
7.88573e-05
8.92114e-06
-0.000158252
0.000104387
6.37078e-05
-9.68606e-05
8.4698e-06
-2.2642e-05
2.02248e-05
-5.80794e-05
-4.53765e-05
-0.000111838
-1.58467e-05
4.6669e-05
8.89611e-06
1.84816e-05
0.000207152
1.02588e-05
3.13809e-05
0.000133192
4.81962e-05
4.80292e-05
4.55591e-05
2.47974e-05
0.000182448
-2.09904e-05
-5.10679e-05
-0.00016566
-1.12362e-05
1.81829e-05
-8.31881e-05
-4.87244e-05
-7.17374e-06
6.01658e-06
-7.74848e-05
6.14966e-05
8.30097e-05
5.09628e-05
-9.22219e-06
-1.73697e-05
4.86046e-06
0.000144273
-9.19844e-05
-0.000114028
-6.5278e-05
-1.09934e-05
8.56711e-05
-5.85336e-07
-1.54502e-05
0.000174423
0.000100693
-6.32093e-05
-0.0001399
1.76425e-05
-7.06058e-05
3.54815e-05
-0.000141505
8.52e-05
7.95142e-05
-0.000127984
1.78959e-05
4.63222e-05
0.000139067
-4.0698e-05
-0.000219237
1.18928e-05
6.91265e-05
0.000103412
3.01389e-05
1.81205e-05
-8.48225e-05
-2.77945e-05
-3.61358e-05
-4.22498e-05
2.4697e-05
-0.000103875
-0.000121247
-1.8388e-05
-5.68037e-05
-0.000118191
-0.000102747
9.25115e-05
2.27748e-05
1.13465e-05
-0.000100635
-2.48381e-05
-9.26373e-05
3.89391e-05
5.67285e-05
-3.55965e-05
7.58735e-05
0.000112991
2.82425e-05
-6.06353e-05
1.33619e-05
-4.06099e-05
-1.7771e-05
8.73171e-05
-0.000233145
-0.000133023
0.000155851
-4.31325e-05
-1.50567e-05
-9.80124e-06
-1.25053e-05
3.95525e-05
-6.42723e-05
3.49211e-06
-0.000116738
-9.34419e-06
2.47866e-05
7.48532e-05
-0.000201997
-7.661e-05
5.21204e-05
6.21415e-05
-2.86254e-05
-7.18145e-05
-8.01748e-05
-4.2862e-05
9.60939e-06
-5.67317e-05
-7.1977e-05
-4.84579e-05
1.45546e-05
0.000141873
0.00012703
1.97324e-06
9.00916e-05
5.6143e-05
-0.000165351
3.27248e-05
-6.42666e-05
9.19832e-05
-1.09954e-06
0.000159574
-1.119e-05
-3.98196e-05
0.000106628
2.95392e-05
0.000145453
-0.000168276
-0.000103096
-5.2359e-05
4.49654e-06
2.28139e-06
6.18855e-05
-3.49614e-05
-0.000110267
8.19855e-05
-8.72058e-05
0.000166318
-0.000134453
4.82146e-05
-8.84815e-06
-3.29851e-06
7.42722e-05
-5.8574e-05
3.09369e-05
5.6217e-07
-9.50586e-05
6.60255e-05
-2.82364e-05
-8.41322e-05
-6.0437e-05
5.38504e-05
0.00025675
-0.000159861
2.50962e-05
3.67751e-05
-2.15393e-05
7.59179e-05
-7.97822e-05
0.000149188
-0.000147423
7.61389e-05
-3.72764e-05
2.41606e-05
-6.29657e-05
-3.29036e-05
1.48163e-05
-4.5312e-05
-8.09516e-05
-7.09492e-05
0.000223434
-8.89176e-05
-7.10959e-05
5.09381e-05
-0.000254145
2.66442e-05
0.000193972
1.42027e-08
6.41409e-05
-9.98835e-05
3.32808e-05
4.9251e-05
4.34159e-05
-0.000144352
7.0425e-05
-1.6971e-06
-0.000104599
-6.99661e-05
-2.57336e-06
3.46685e-06
0.000126863
-8.41727e-05
0.00011235
-7.54301e-06
7.81077e-06
-0.000189093
2.34593e-05
-8.62731e-06
-0.000121178
-2.05012e-05
-6.07863e-06
5.29641e-05
-0.000192091
-9.77203e-05
-8.92673e-07
-9.43698e-06
-0.000140862
1.41962e-05
0.000150768
-2.41938e-05
-5.04707e-05
-0.000102181
-7.32186e-05
4.00079e-05
-8.4015e-05
-2.61993e-06
7.21652e-05
-5.01575e-06
-0.000208037
-5.41105e-05
5.78299e-05
3.0126e-06
-0.000111918
6.54079e-06
-5.46846e-05
-5.0874e-05
-0.000133589
3.31156e-05
-4.74055e-06
-5.78377e-05
1.08758e-05
-4.19097e-05
-7.33043e-05
-5.93821e-05
-6.37656e-05
-7.9192e-05
0.000179464
1.76667e-05
2.41748e-05
4.9012e-05
9.09173e-05
1.51545e-05
2.98349e-05
0.000123129
-3.18816e-05
-5.28044e-05
4.12742e-05
-3.41268e-05
3.48024e-05
5.96382e-05
4.79474e-05
4.51223e-05
-8.7588e-05
-0.000116376
0.000112258
0.000105033
5.79013e-05
-5.8976e-05
-0.000101084
-4.49345e-05
1.35773e-05
-8.03015e-05
-7.24149e-05
-5.80536e-05
-8.03929e-06
8.58207e-05
4.42255e-05
1.96763e-05
6.93053e-05
-1.14447e-05
4.6633e-05
0.000114619
6.39139e-05
2.4543e-05
1.20531e-05
-3.64082e-05
0.000183935
-4.00512e-05
-9.58393e-05
-7.9737e-05
-6.42383e-05
0.000156117
-6.36358e-05
-2.02827e-05
4.17407e-06
-4.45126e-05
7.46367e-05
4.8836e-05
-3.63684e-05
-0.000136864
2.26918e-05
8.50556e-05
-0.000120947
5.87201e-05
8.04805e-05
0.000141268
-9.61537e-05
-4.66126e-05
9.01567e-06
9.69355e-06
-7.78125e-05
-0.000100692
-1.29176e-05
-5.87939e-05
0.000103821
-6.09955e-05
8.94503e-05
9.45115e-05
-0.000128505
-4.94937e-05
-4.36889e-05
-7.0831e-05
-0.000152902
8.99581e-05
3.93857e-05
-3.43996e-05
8.36039e-05
-8.62693e-05
1.90383e-05
0.000105029
6.92384e-05
-0.00015256
-1.11228e-05
1.29399e-05
-3.59842e-05
-0.000109606
-9.22428e-06
4.99602e-05
-0.000108296
-2.22258e-05
0.000162948
-3.69203e-05
-8.1397e-05
7.08319e-05
7.32481e-05
-0.000151626
1.86787e-05
-8.27656e-05
0.000149286
0.00020864
-8.35501e-05
0.000200181
-0.000120059
-1.8811e-05
6.65955e-05
2.44029e-05
3.58017e-05
-2.18058e-05
2.20278e-05
9.15944e-06
-1.01894e-05
7.73019e-05
0.000114986
0.000149647
-0.00023387
-7.64144e-05
-7.88821e-05
-9.34933e-05
-2.89037e-05
-6.38497e-05
-1.02561e-05
6.80245e-05
8.09906e-05
-9.7729e-05
-4.77619e-05
2.207e-05
-9.0726e-06
-7.34441e-05
-2.47917e-05
-5.54185e-05
-0.000158401
-0.000131673
-0.000131402
0.000161567
-3.50317e-06
0.000106312
6.2738e-05
8.72306e-05
2.11262e-05
-3.42306e-05
6.97582e-05
-0.000100716
-5.44621e-05
3.59348e-05
0.000133588
-0.000108584
-3.32656e-05
3.54219e-05
1.38138e-05
0.000106503
3.69288e-05
-6.15639e-05
1.4297e-06
3.04112e-06
-1.18789e-05
4.2985e-05
-0.000108531
5.92815e-05
-7.51647e-06
-9.04318e-05
0.000141919
-2.30524e-05
6.78934e-06
3.79235e-05
-0.000152063
4.06211e-05
5.02761e-05
0.000112594
0.000128136
-0.000125756
1.05312e-05
-5.09267e-05
2.9841e-05
2.57912e-05
-8.11839e-05
0.000115301
6.59632e-05
6.76945e-05
-0.000130828
-0.00011262
0.000101887
1.27079e-06
4.53307e-05
-8.13745e-05
-5.44183e-05
1.97908e-05
0.000133826
-0.000102773
2.49997e-05
2.9773e-05
-0.000129572
0.000129192
0.000223764
-9.91623e-05
3.28551e-05
-1.16031e-05
-8.31762e-05
-9.0793e-05
0.000253357
5.35445e-05
8.99076e-05
-1.2883e-05
1.56281e-05
-1.35124e-05
-6.94772e-05
0.000116717
6.96164e-07
-0.000128638
9.77187e-05
-3.59087e-05
7.80565e-06
-3.26311e-05
2.09035e-06
-0.000176927
3.63813e-05
8.55342e-05
3.70876e-06
-5.72656e-05
-6.51205e-05
3.48396e-05
7.93128e-05
-2.30512e-05
-9.24057e-05
0.000148317
2.0889e-05
-0.000112436
-1.74891e-06
2.79106e-05
0.000137688
2.49799e-05
9.28806e-05
-7.9181e-05
-3.03593e-05
-2.91758e-05
-9.09555e-05
2.60478e-05
5.77999e-05
-3.75829e-05
-1.97815e-05
0.000156924
1.18949e-05
-4.09647e-05
-4.77931e-06
6.18375e-05
3.51775e-05
-7.29745e-05
2.94531e-05
-4.75404e-05
-0.000199166
-5.49514e-05
0.000113419
1.6585e-05
0.000119959
-4.95457e-05
-5.48704e-05
-4.40069e-05
-0.00013232
-1.10688e-05
-3.26027e-05
2.95191e-05
-6.70101e-05
-5.68007e-05
4.42577e-05
0.000101565
-3.75581e-05
6.8852e-05
2.77112e-05
-1.84722e-05
6.67968e-06
2.38261e-05
-5.53911e-05
-4.54471e-05
-0.000216462
-2.11403e-05
-1.80863e-06
-2.24015e-05
-1.20925e-05
0.000100169
-2.95332e-05
-7.85103e-05
-5.64097e-05
3.54524e-05
-0.000122102
2.53569e-05
-5.15477e-05
-4.7385e-05
-0.000177943
9.9132e-05
-2.02775e-05
-9.05284e-05
-0.000160803
3.15858e-05
2.08623e-05
0.000123532
2.61994e-05
0.00012931
0.000128507
-0.000103171
0.000114865
-0.000114433
-0.000105037
8.21949e-05
2.43471e-06
-7.25683e-05
7.05033e-05
-7.86395e-05
6.73991e-05
-0.000127969
-0.000100283
-0.000118212
-7.90136e-05
0.000137716
0.000141568
9.92999e-06
7.19064e-05
0.000100329
2.52507e-05
1.47393e-06
8.82397e-05
5.75718e-05
-6.24529e-05
8.51983e-05
-0.000157947
1.81698e-05
-3.88618e-06
4.89352e-05
4.22925e-05
-0.000100306
-1.68686e-06
-1.68708e-05
0.000236002
-3.15236e-05
0.000154999
8.43906e-05
-0.00017859
-0.000125186
8.14854e-05
0.000228193
9.75166e-05
5.02623e-06
-2.937e-05
-2.13401e-05
-8.04639e-06
0.000111529
1.98022e-07
1.47172e-05
2.26215e-05
-5.05627e-05
-1.86265e-05
-9.56483e-05
1.27174e-05
-6.36955e-06
-4.83736e-05
-0.000162495
-0.000150669
-0.000123185
-0.000130301
-0.000143541
2.76944e-05
-1.19654e-05
2.78478e-05
9.66764e-05
-0.000155889
-2.90856e-05
4.30583e-05
5.52202e-05
5.57832e-05
-7.19577e-05
8.21793e-05
3.18e-05
-1.6143e-05
0.000118334
-3.50525e-05
6.98171e-05
5.22407e-05
-7.46015e-05
0.000128429
6.87912e-05
5.37089e-05
0.00016408
-6.80995e-06
5.29118e-05
6.07581e-05
0.00010507
-3.67903e-05
6.41255e-05
3.23202e-05
1.73887e-05
-6.47985e-05
3.52543e-05
-5.44719e-06
-5.82708e-05
1.32599e-05
7.89622e-06
3.9204e-06
-6.19175e-05
-0.000115363
0.000189382
-7.03011e-05
3.24491e-05
-1.29219e-05
1.29633e-05
3.50398e-05
-3.84761e-05
-0.000227834
1.5444e-05
6.68489e-05
0.000208985
-0.000137775
-0.000119738
3.37965e-06
-6.67846e-05
5.28111e-05
0.000212002
-5.04098e-05
4.52352e-05
6.23984e-05
6.9259e-06
3.33391e-05
-6.3704e-05
-0.000141853
-8.25963e-05
-2.83278e-05
6.21288e-05
7.06124e-05
-5.41141e-05
7.35447e-05
-7.91082e-05
-5.05357e-05
-4.26952e-05
-7.86117e-05
0.0001346
8.8641e-06
2.62016e-06
-3.53692e-05
-5.94266e-05
3.82788e-05
0.000139264
3.07459e-05
7.9216e-06
-4.54559e-05
9.66461e-05
-7.32997e-05
5.7451e-06
0.000131036
-4.60165e-05
6.88415e-05
1.54726e-05
-8.83696e-05
-5.20655e-05
1.93812e-05
-2.46967e-05
-0.000105775
5.53709e-05
8.18245e-05
-1.16581e-05
7.75491e-05
-7.53815e-05
1.98965e-05
-6.55053e-05
8.65613e-05
-3.59192e-05
3.04579e-05
-5.88945e-05
9.53057e-06
8.25461e-05
7.46211e-05
0.00012271
-5.17642e-05
-0.000140594
0.00019018
9.21066e-06
3.64252e-05
9.16626e-05
-3.47006e-05
4.3662e-05
3.0777e-05
-0.000150937
-8.95237e-05
0.000129957
-3.13128e-05
-7.87965e-05
6.66245e-06
-1.89361e-06
5.44358e-05
-0.00015793
6.44323e-05
4.38909e-06
3.60436e-05
-2.89262e-05
8.6172e-05
-1.95216e-05
0.000125604
-4.9316e-05
-0.000227412
-8.44894e-05
5.98043e-05
9.87019e-05
1.23556e-05
-5.9548e-05
-9.38489e-05
-3.79886e-06
9.86247e-06
2.55557e-05
-2.09048e-05
5.29062e-05
0.000165624
1.71979e-05
-1.62061e-05
8.63128e-05
9.68993e-05
0.000138409
-7.13125e-05
-9.83444e-05
-0.000187773
5.00735e-05
-0.000108281
-4.20376e-05
5.10602e-05
-1.11759e-05
-0.000140329
-4.61562e-05
9.76481e-05
1.93343e-06
0.000108967
-0.000172523
9.25409e-06
-0.000121084
-5.38625e-05
0.000162285
6.13237e-05
-2.99665e-05
7.61808e-05
0.000115906
-6.37937e-05
3.29333e-05
2.14525e-05
-4.11295e-06
5.75267e-05
2.30669e-05
2.59972e-05
-0.000109766
-5.54884e-05
-8.38365e-06
2.87622e-05
9.90403e-05
-4.36301e-05
1.81707e-05
-0.000169497
6.91151e-05
0.00012983
-9.32172e-05
-1.71872e-05
-6.78562e-05
-1.37769e-05
-2.54698e-05
4.15122e-05
2.24677e-05
-9.06693e-05
2.38931e-06
2.23623e-05
-1.01801e-05
-2.06262e-05
8.91829e-05
-1.04995e-06
-7.01819e-05
6.77118e-05
-0.000114378
0.00017775
6.0708e-05
-6.39324e-05
-4.53336e-05
-9.15691e-05
5.09662e-05
0.000144512
3.63728e-06
9.31625e-06
-4.96004e-05
-2.26527e-05
-0.000135984
6.17022e-05
-8.2309e-05
-2.61457e-05
6.40767e-05
-3.31929e-05
3.07766e-05
8.76582e-05
-0.000151892
-5.16768e-05
1.66296e-05
-6.09263e-05
-0.000119047
6.81186e-05
1.12376e-05
-9.24419e-06
-5.53958e-05
0.000118444
-2.72865e-05
-0.000138147
4.61022e-05
4.37279e-06
3.1558e-05
-5.2243e-05
-7.02606e-05
5.6606e-05
0.000132814
0.000165443
0.00012442
5.91396e-05
-9.19705e-05
1.81687e-05
6.40971e-06
8.71536e-05
4.34434e-05
8.68461e-05
-6.83204e-05
2.92051e-05
-3.11065e-05
2.90943e-05
7.03547e-05
-7.91656e-05
0.000121497
1.46352e-05
-3.86852e-05
-5.53844e-05
-9.60238e-05
0.000150604
4.095e-05
-7.54483e-05
-6.59031e-05
3.99818e-05
-3.86499e-05
0.000112857
-0.000197858
4.93143e-05
-6.38689e-05
-1.77042e-05
-2.65979e-05
-0.000101565
-1.84752e-05
-3.32675e-05
-1.24197e-05
-1.43056e-05
2.11515e-06
-3.65265e-05
2.22865e-05
-5.7704e-05
0.000197708
-0.000151495
-5.89499e-05
0.000137779
2.68318e-05
-9.80288e-05
-0.000124932
3.1143e-05
-1.91445e-05
1.8978e-06
9.94828e-05
0.00023289
7.02438e-05
-0.000154902
-8.72556e-05
0.000162866
4.77815e-06
-3.19129e-06
2.80289e-05
5.15275e-05
2.49967e-05
0.00011302
-0.00010313
6.4288e-06
-6.80699e-05
5.21257e-05
9.98087e-05
3.75335e-05
-1.25126e-05
2.7868e-05
-0.000175121
-3.98161e-05
0.000127756
5.7132e-06
-4.73834e-06
2.42174e-05
-0.000104495
-2.66102e-06
-0.000126257
-6.13291e-05
4.57135e-05
-2.78157e-05
7.88625e-05
0.000187592
0.000142461
-7.18029e-05
3.68713e-05
-7.99715e-05
-9.76786e-05
8.35124e-05
-7.66612e-05
1.73708e-05
3.88214e-05
3.7634e-05
-6.60969e-05
-4.90412e-05
-7.54837e-06
-0.000157611
7.44849e-05
0.000110231
0.000165343
-0.000116037
5.6813e-05
2.02928e-05
-4.26096e-05
4.47265e-05
-3.47778e-05
-3.89833e-05
-7.47684e-05
4.80474e-05
9.04487e-05
-5.5811e-05
-1.13861e-05
3.43565e-06
0.000201405
-5.24541e-05
6.94706e-05
-1.13552e-06
-8.97852e-05
6.21262e-06
-1.40303e-05
-5.95949e-05
3.4633e-05
0.000132579
-3.57156e-05
3.04382e-05
0.000111536
1.88515e-05
-1.74164e-05
-4.32127e-05
-1.18217e-05
-1.31899e-06
2.33713e-05
-2.01708e-05
-7.93708e-05
0.000145506
1.79213e-05
-2.63033e-05
-3.20195e-05
7.61116e-05
-8.72673e-06
-0.000197837
-0.000123453
2.00719e-05
4.62927e-05
0.000133335
-1.32774e-05
2.91378e-05
4.53094e-05
-3.26463e-05
-4.0591e-05
0.00012126
6.09388e-05
1.83122e-05
-6.41078e-05
8.71443e-05
-3.52119e-05
-2.23265e-05
2.699e-05
-0.000210486
0.000114812
-9.10568e-05
0.00014374
1.79425e-05
1.02347e-05
-2.47058e-05
8.52565e-05
0.000171645
-1.39993e-05
-7.11631e-05
-7.28327e-05
5.84442e-05
5.29923e-05
6.56091e-05
-9.69049e-05
-1.35745e-05
0.000129801
0.000239294
-4.43285e-05
3.97891e-05
-1.95486e-05
9.60256e-05
-3.60289e-05
-0.000116182
-2.88164e-05
-4.16203e-05
0.000108468
7.31391e-06
2.43828e-05
-3.95873e-05
-9.52767e-05
0.000234467
8.88011e-05
5.22877e-05
7.42768e-05
6.16394e-05
-4.00973e-05
-8.55422e-05
-0.000195942
-9.62394e-05
-2.46782e-05
4.10401e-05
7.28227e-05
-1.15091e-05
0.000226808
0.000109816
-0.000132022
-9.46363e-06
7.56361e-05
-8.94838e-06
3.65064e-05
0.000156297
0.000201728
3.54766e-05
0.00015469
-1.79444e-05
9.59343e-05
9.93991e-05
-0.000144887
-0.000179458
-5.5755e-05
-0.000112793
4.62696e-05
9.80333e-06
-3.30927e-05
-6.04566e-05
4.98851e-06
6.31217e-05
-4.55349e-05
8.08999e-05
-4.53427e-05
-5.27855e-05
-3.14484e-06
-3.57049e-05
-9.53046e-06
-6.95033e-05
0.000112653
3.84292e-05
3.97174e-05
0.00011879
0.000150988
-1.51483e-05
-7.94134e-05
9.3492e-06
-0.0001943
9.04873e-06
0.000121529
0.000118377
1.48944e-05
-4.72447e-05
-0.000137434
9.47148e-05
7.65388e-05
2.4328e-05
-5.19556e-05
-9.07071e-05
-7.84028e-05
-0.00013318
0.000166111
0.000142645
-1.2802e-05
-6.76466e-06
6.35245e-05
-0.00016043
6.11541e-05
6.39413e-05
-4.49229e-05
-0.000135077
6.33211e-05
-1.6914e-06
7.03941e-05
-3.51341e-06
2.15789e-05
-9.54929e-05
4.56348e-08
3.93006e-06
-0.000138938
-4.66091e-05
-2.13992e-05
3.82509e-05
4.52863e-05
-5.11392e-05
-4.63858e-05
-3.8148e-05
-3.43003e-05
0.000192354
7.41846e-05
0.000221835
0.000152335
-0.000181402
7.71309e-05
-2.89917e-05
-3.5278e-05
-1.87594e-05
3.99145e-05
7.1595e-05
0.00011
-1.74604e-05
4.86121e-05
1.13621e-07
-2.96717e-05
-2.04891e-08
3.66989e-05
7.52395e-05
-6.67822e-05
-0.00012009
0.000114192
-8.33061e-05
0.000195565
-3.68105e-05
-4.92423e-05
-4.45824e-05
-6.7284e-05
-4.47987e-05
5.05159e-05
9.99528e-05
-0.000119873
-7.21816e-05
3.08801e-05
1.09178e-05
-6.43216e-05
-1.27675e-05
0.000136612
2.14311e-05
-8.01781e-05
0.000107603
-1.95252e-06
1.55654e-05
-0.000126493
-4.6882e-05
8.12865e-05
-2.08907e-05
-8.32626e-05
0.000186634
0.000197409
5.88674e-05
-0.000151033
-0.000109854
-0.000144197
-1.88316e-05
-2.33381e-05
9.07424e-05
0.000110765
8.38423e-07
0.000269336
6.35919e-06
-0.000178776
4.82051e-05
7.14092e-07
4.82146e-06
-7.97906e-05
-8.61991e-05
-1.99098e-05
-4.88926e-05
9.48089e-05
-7.22473e-07
0.000105487
-5.55769e-05
-3.23023e-05
-5.79772e-06
7.0036e-05
-2.66406e-05
5.87711e-06
2.30995e-05
-2.69384e-05
-3.54308e-05
0.000121423
-0.00019233
6.66257e-05
5.33486e-05
-3.13582e-05
-0.0001127
3.98427e-05
8.37327e-05
-0.000135248
-0.000129601
-3.15754e-05
-7.25343e-05
9.45916e-05
8.67741e-05
-0.000117805
-4.82253e-05
2.83669e-06
-0.00020758
2.65406e-05
0.000114954
2.77173e-06
-5.15215e-05
9.70061e-05
0.000128563
-5.79404e-05
4.13863e-05
8.48332e-05
-4.58404e-05
-9.1324e-05
0.000140747
2.60654e-05
-9.71522e-05
7.65487e-05
1.62683e-05
-0.000120146
-0.000104042
-4.25783e-05
0.000110973
2.52868e-05
-0.000134327
-6.40895e-05
0.000116878
5.98418e-05
-7.31114e-05
3.84439e-05
-2.63026e-05
-4.34946e-05
-9.02769e-05
2.12619e-05
-6.1458e-05
0.000181006
6.66182e-05
-0.00014922
-9.56724e-06
0.000104835
8.10265e-05
3.1744e-05
-2.58493e-05
-5.59188e-05
1.56058e-05
-4.15969e-05
4.94547e-05
-7.84523e-05
-0.0001203
1.88593e-05
3.40238e-05
-0.000102925
-9.41437e-05
-6.72652e-05
-2.04021e-05
-4.34599e-05
1.1439e-05
7.69973e-05
-0.000202481
-7.01286e-06
5.69588e-05
0.000138872
2.73623e-06
-1.34443e-05
0.000141716
-9.7819e-05
-1.75686e-05
-0.000114249
-4.51773e-06
0.000133411
-1.63736e-05
2.38845e-05
0.00011409
-1.51452e-05
5.7806e-06
-5.89268e-05
0.000106519
-0.000110708
6.32809e-05
0.000123234
-7.25347e-05
-4.84369e-06
4.08351e-05
-9.35432e-06
-0.000105669
-4.5579e-05
0.000124541
-6.00491e-05
-4.19321e-05
-0.000133914
-2.70045e-05
-2.51989e-05
5.45708e-06
-5.03543e-06
-7.6921e-05
6.50529e-06
0.000116326
0.000127374
0.000166731
-1.05563e-05
-0.000206479
0.000182522
7.48385e-05
-2.78916e-05
7.52542e-05
-4.91737e-05
-1.8549e-05
-1.14247e-05
3.40792e-05
-3.84292e-05
-7.33607e-05
8.69251e-05
6.50194e-05
-9.85955e-05
-5.78421e-06
-1.07903e-05
-5.8021e-05
-9.20607e-05
2.76717e-05
-8.15352e-05
-7.98196e-05
2.13587e-05
0.000112224
9.84112e-05
7.53236e-05
-0.000211937
0.000163681
-7.19713e-05
4.48036e-06
-3.96579e-05
5.87146e-05
3.47935e-05
3.47584e-05
2.93546e-05
4.70446e-06
5.54369e-05
-1.48627e-06
-0.000124395
-3.48384e-06
-5.07146e-05
-2.09991e-05
0.000129396
-2.92571e-05
2.0918e-05
-7.05537e-05
-0.000171928
-3.46855e-05
0.000154134
-4.65247e-05
0.000150401
-1.40688e-05
2.78037e-05
-4.51307e-05
9.39507e-06
0.000141183
3.29126e-05
-4.06129e-05
6.58382e-05
3.87589e-05
-2.93376e-05
-3.00347e-05
-5.72321e-06
6.48901e-05
-3.88516e-05
0.000130689
-4.96432e-05
7.59359e-05
-3.69506e-05
9.97784e-06
-6.46465e-05
3.62752e-05
-2.49825e-05
-3.81784e-05
1.75785e-05
-6.32816e-05
-6.81191e-05
7.20704e-05
-4.2606e-05
-4.93637e-05
-9.9204e-05
-0.000139118
9.75175e-05
-3.39869e-05
-0.000114887
-0.000112189
4.04841e-05
-2.15921e-05
-4.61729e-05
0.000109451
7.06454e-05
-4.02322e-05
6.59099e-05
-3.00456e-05
4.02901e-05
0.000171771
-0.000140593
-0.000213177
-5.79013e-05
-5.55324e-06
6.44505e-05
-0.000166968
8.32403e-05
7.40781e-05
-5.58048e-06
1.56965e-05
0.000152073
4.79016e-05
2.48024e-05
-1.09859e-05
-6.54364e-05
-9.8082e-05
-5.30058e-05
-2.28533e-05
0.000155693
6.38092e-05
4.59801e-05
-3.64109e-05
-0.000112674
-4.98453e-05
1.40646e-05
6.13101e-06
-2.21182e-05
3.62444e-05
6.27337e-05
2.96988e-05
7.35478e-05
-3.08978e-05
-8.75964e-05
1.02562e-06
0.000234073
-6.07655e-05
-8.9927e-05
4.31337e-05
9.36025e-05
4.04278e-05
-5.69934e-06
-7.08201e-05
-1.62122e-05
-8.73023e-05
-9.12341e-05