# vtk DataFile Version 1.0
Net Charge Density
ASCII
DATASET STRUCTURED_POINTS
DIMENSIONS 256 128 1
ORIGIN 0 0 0
SPACING 0.15625 0.15625 1
POINT_DATA 32768
SCALARS rhonet float
LOOKUP_TABLE default
0.000260694
-0.000159223
2.18106e-05
0.000128985
7.54059e-05
-6.19624e-05
0.000148988
-0.000233978
2.03518e-05
9.28552e-06
0.000243507
0.000333465
0.00028786
-0.000117848
-0.000262603
0.000202375
0.000260453
-0.000219943
-8.39125e-05
-0.000277306
0.000144521
-6.4692e-07
-2.24045e-05
9.98143e-05
-6.14999e-06
0.000378381
0.000199718
0.00010805
0.000284342
-2.27541e-05
-0.000130025
-0.000100807
0.000250396
0.00015411
5.85308e-05
8.99129e-05
0.000218268
-6.33136e-06
-6.08265e-05
-4.09363e-05
7.98499e-05
0.00017779
-2.40796e-05
0.000195336
5.75697e-05
4.63231e-05
9.83061e-05
-3.09686e-05
0.000123161
6.11427e-05
9.98469e-05
-7.68609e-05
0.000171346
0.000182291
-0.000130773
-3.03517e-05
0.000116821
9.6522e-05
1.92241e-05
4.55735e-05
8.52123e-05
0.000261668
0.000160052
-5.32346e-05
5.93136e-07
8.91404e-05
3.72187e-05
0.000201506
0.00012314
-0.000189053
-0.000212799
1.06992e-05
7.59369e-05
7.23136e-05
0.000317506
8.29255e-05
8.759e-05
6.1285e-05
-5.04276e-05
-0.000190905
-0.000254621
2.6483e-05
8.74684e-05
5.27559e-05
0.000176283
0.000236549
8.96308e-05
7.49299e-05
-5.03474e-05
0.000276924
-7.19118e-05
-0.000152569
-2.14232e-05
0.000123335
0.000141094
0.00015987
-0.000216939
0.000115086
-0.000116826
0.000346355
-4.38185e-05
7.38193e-05
0.000186329
-0.000168678
6.66539e-05
0.000188359
0.000112707
-0.00014632
-0.000133752
0.00010756
-0.000137552
0.000111595
0.000291182
-0.00020482
-0.000187982
9.54565e-05
0.00028652
0.000323535
-4.82294e-05
-3.48466e-06
-0.000156834
0.000129013
-6.30966e-05
5.21969e-05
0.00017556
5.82048e-05
4.63356e-06
4.27655e-05
0.000259827
0.000192969
5.98948e-05
0.000156899
9.22824e-05
0.000114343
-0.000172242
0.000270287
0.00034954
-3.41362e-05
-3.19231e-05
-0.000256485
-6.04853e-05
0.00013286
0.00022912
-0.000140176
-5.23196e-05
0.000132112
4.37379e-05
-6.78437e-05
9.38182e-05
0.000240677
-3.22368e-05
8.30903e-06
0.000100724
0.000392399
-3.01771e-05
4.55767e-05
-0.000143511
0.000173652
-1.35597e-05
0.000248483
7.24063e-05
4.61552e-05
-0.000179912
0.000302003
-6.69162e-05
-0.000156217
0.000153146
0.000364165
-0.000100705
0.000110579
-1.29424e-05
-3.67e-05
-5.73251e-05
2.74716e-05
-0.000247665
0.000137247
7.63313e-05
-6.84941e-06
-1.84495e-05
-6.38035e-05
0.000250705
0.000315045
-5.85106e-05
-5.45173e-07
-0.000227286
5.13078e-05
6.97928e-05
-6.44606e-05
-0.000117257
0.000392157
0.000246525
4.531e-05
6.72888e-05
-3.75125e-05
3.84989e-05
0.000246861
0.000289357
0.000127296
4.14681e-05
4.93961e-05
0.00019084
0.000137782
6.45535e-05
-3.55049e-05
0.000307957
-0.000149991
7.31484e-06
0.000148067
7.99891e-05
0.000362992
-0.000140136
2.28524e-05
0.000221248
0.000299693
4.45847e-06
6.70243e-05
0.000206544
-5.13688e-05
0.000113609
0.00019893
-0.00031538
-2.9335e-05
0.00041482
-0.000133245
9.39175e-05
0.000307861
-6.1396e-05
-2.73144e-05
8.3843e-05
0.000238995
4.75574e-05
3.92413e-05
-8.24049e-05
0.000115785
-3.43898e-05
-1.82315e-05
9.21914e-05
0.000167618
6.7598e-05
0.000133828
-5.61257e-05
-2.13051e-05
0.000114128
0.000138223
-0.000204544
0.000181318
8.63113e-05
1.57391e-05
8.43826e-05
3.57571e-05
-2.56873e-05
-7.81901e-05
-6.9392e-05
8.85375e-05
-1.01542e-05
0.000133411
-0.000228348
-1.38618e-05
5.10664e-05
5.21999e-05
-3.90111e-05
-0.000128567
-2.80666e-05
-0.000158877
0.000296768
1.03355e-05
-7.73624e-05
-3.43177e-05
9.65474e-05
-0.000179243
-0.000241764
-5.95796e-05
2.82181e-05
-3.61283e-05
0.000151197
2.86688e-05
0.000153857
-0.000103879
-0.000184562
2.7093e-05
-0.000283864
-5.27273e-05
7.57336e-05
-0.000102369
-9.64445e-05
5.96278e-05
-0.00013005
-3.56119e-05
5.01088e-05
1.99276e-05
4.0372e-05
-6.29737e-05
-1.98889e-05
2.25267e-05
-7.24228e-05
0.000107569
-8.01911e-05
-4.13337e-05
-0.000234254
9.10053e-05
-0.000180795
-7.47438e-05
-9.36561e-07
-8.97865e-05
9.86566e-05
-4.20101e-05
-6.40824e-05
4.55035e-05
8.70173e-05
-5.71874e-05
-0.000183361
-5.42403e-05
6.66624e-05
4.10362e-05
-6.16638e-05
2.81492e-05
-0.000151982
-0.000199009
9.47728e-05
-6.47368e-05
-6.18312e-05
6.36121e-05
-0.000120259
-1.59553e-05
0.000105092
6.36793e-05
-3.14334e-05
-0.000117584
-0.000142445
7.7507e-05
-6.6374e-05
0.000198766
-4.23547e-05
-0.000109405
0.000109946
1.3028e-05
-0.000140384
-0.000103979
0.000109881
0.000126509
-0.000153685
-4.21411e-05
3.10034e-05
-0.000125404
2.63351e-05
0.000140598
-0.000162962
-6.97533e-05
3.81169e-05
2.16021e-05
7.35479e-05
-2.64002e-05
8.05373e-06
3.2531e-05
-7.60505e-05
1.08194e-05
-8.63068e-05
-0.000216672
3.17983e-05
0.000192433
-6.74254e-06
6.0239e-05
-3.75191e-05
0.000104398
-5.60358e-05
-6.47074e-05
4.22312e-05
-0.000155643
-5.20368e-05
-8.49711e-05
-9.479e-06
1.99352e-05
-6.78597e-06
-6.84587e-05
-9.1183e-05
-7.73413e-05
-0.000200513
3.72803e-05
3.89953e-05
2.52926e-05
-1.67241e-05
0.000192405
-3.47379e-05
-0.000210418
3.39001e-06
-0.000156695
-0.000174874
0.000174137
-7.89708e-05
-0.000112272
5.76838e-07
-1.39007e-05
-7.11163e-05
-3.76517e-05
-4.65421e-05
-0.000242445
0.000189794
0.000141185
0.00012797
-0.000132017
-0.000247435
-3.25103e-05
4.26288e-05
0.00014477
6.15441e-05
5.6517e-05
-0.000176314
-0.000239596
-2.33254e-05
-6.08282e-06
-4.04225e-05
-0.0001585
-9.52207e-06
1.08767e-05
-0.000139557
3.1753e-05
-5.46733e-06
0.00012831
-0.000128308
0.000177889
1.38197e-05
-6.89023e-05
-4.38861e-05
-1.54451e-05
5.15181e-05
1.57556e-06
-6.8387e-06
5.49902e-05
0.000125866
0.000166137
-0.000212254
4.5365e-05
-5.07822e-05
-5.93088e-05
9.64735e-05
-8.094e-05
-9.76226e-05
5.39003e-08
-8.00148e-05
-9.2451e-05
-0.00017424
3.68769e-06
6.51785e-05
-3.4743e-05
-0.000138274
-9.60488e-05
-0.000255353
-7.40397e-05
0.000149076
6.95372e-06
-0.000113275
3.62295e-05
-0.000128494
-0.000148889
-0.000216131
-2.76744e-05
-7.78432e-05
0.000131662
-0.00015215
-3.21589e-05
-1.08926e-05
-0.000246038
-3.01553e-05
0.000113192
-0.000166239
-9.88981e-05
-2.78085e-05
-7.13728e-05
2.46293e-05
9.55085e-05
-7.28219e-05
-0.000133337
2.30161e-05
-0.000126196
-0.000139822
8.4769e-05
-0.000143497
-0.000161894
-2.82736e-05
5.13834e-05
-1.15132e-05
2.38651e-05
7.88667e-06
-3.21749e-05
-0.000132435
-2.86927e-05
-5.09266e-05
2.00809e-05
-0.000104443
-8.3898e-05
-0.000119002
9.85087e-05
4.73905e-05
0.000128882
-5.32202e-05
8.0141e-05
-1.0354e-06
-7.73408e-05
-3.16673e-05
3.23288e-05
-1.54537e-05
-7.6117e-05
5.46209e-05
-0.000123512
-7.3627e-05
0.000106227
-9.98825e-05
-5.14268e-05
2.30481e-05
-3.16463e-06
-1.02958e-06
-0.000159619
6.03361e-05
0.000128585
-0.000116863
-3.6485e-05
-0.000111965
-0.000188691
-0.00010103
-6.62414e-05
0.000175937
6.42065e-05
9.25222e-06
0.000137273
2.47919e-05
-0.000112731
9.019e-05
-9.088e-05
5.50917e-05
0.000153218
0.000106944
0.000207844
-2.60416e-05
-8.58544e-05
6.35753e-05
0.000124778
-0.000195838
6.42048e-05
-9.00867e-05
2.21641e-05
-1.05691e-05
6.81665e-05
3.31219e-05
-0.000162391
-0.000168637
0.00020704
-2.26656e-05
-0.000103314
-9.60302e-05
9.38277e-05
4.0762e-05
-4.75801e-05
3.78151e-05
0.00010319
-7.2329e-05
-7.14203e-05
-8.23906e-06
-9.81123e-05
-0.000110427
3.64028e-05
-5.77397e-05
0.000146509
1.79041e-05
5.8089e-05
-7.26809e-05
6.35091e-05
-2.76555e-05
-3.27833e-05
0.000121805
-7.23846e-05
8.92805e-05
0.000190752
-3.9289e-05
-0.000174418
3.99577e-05
0.000165093
-6.68523e-05
-9.09285e-06
-3.54944e-05
8.44443e-05
2.29785e-05
-8.90839e-05
0.00012315
-4.34648e-05
0.000109174
-6.36345e-05
-0.000186008
-2.56987e-06
-0.000240261
5.28246e-05
5.17552e-05
0.000114587
-1.85667e-05
-0.0001814
5.37783e-05
0.000118901
-6.6366e-05
0.000182045
-3.48755e-05
-0.000112161
-0.000115238
4.00499e-05
4.1095e-05
-0.00014626
0.00012992
-5.71688e-05
-0.000178429
0.000159586
3.71643e-05
-9.17034e-05
7.31084e-05
0.000254323
9.02959e-05
-0.000254264
-0.000122284
5.64825e-05
5.05209e-05
-2.03634e-05
-3.39275e-05
4.26101e-05
0.00010822
-0.000268436
4.74257e-05
5.8342e-05
6.20671e-05
5.07167e-05
2.4108e-05
4.48255e-05
3.31118e-05
2.56323e-06
8.96783e-05
4.56292e-05
1.566e-05
-0.000154009
-0.000117747
2.9222e-05
3.25555e-05
-0.000130458
-9.09005e-05
-3.51372e-05
7.36844e-05
5.31008e-05
1.22462e-05
0.0001852
1.71384e-05
-8.46674e-05
0.000179209
-0.000251125
-0.000140501
2.42263e-05
2.6186e-05
3.59277e-05
0.000205323
-0.000164081
-2.93797e-05
4.91561e-05
-0.000153927
-1.26907e-05
8.07921e-05
-4.48251e-05
-8.26073e-05
-0.00011488
-6.69094e-05
-1.2889e-05
0.000132953
-0.000112629
5.97164e-05
2.95436e-05
0.000112613
-8.93699e-05
6.32212e-05
5.91334e-05
-1.16026e-05
0.000137546
-0.000226579
-4.16016e-05
-7.29782e-05
-2.53578e-05
-3.82786e-05
-0.000120179
0.000135344
4.72649e-05
0.000184446
-0.000104397
-2.52562e-05
-4.54828e-05
-5.88722e-05
2.44727e-05
-3.85991e-05
-9.16588e-05
6.08448e-05
4.25489e-05
1.0038e-05
-7.98075e-05
-8.31205e-06
9.61495e-05
-5.56757e-05
0.00011144
9.72003e-05
-6.73686e-05
-5.5409e-06
2.12957e-05
7.53419e-05
3.2951e-05
6.29069e-05
-9.91886e-05
5.90603e-05
2.88365e-05
-0.000152294
-5.80412e-06
0.000105348
-0.000200198
-0.000147609
0.000163299
4.5132e-05
-3.69879e-05
7.38861e-05
-4.97585e-05
8.65536e-05
3.40322e-05
6.95176e-05
0.000201616
2.68163e-05
-0.000192379
2.62724e-05
0.000107141
-3.99447e-05
-0.000200354
-6.4042e-05
-7.51193e-05
6.44623e-05
4.75884e-05
0.000120552
9.04838e-05
4.48802e-05
1.66302e-05
5.53348e-05
-6.42675e-05
0.000119143
-0.000150188
-0.000170378
-7.40872e-05
-1.49024e-05
0.000130736
0.000120012
-0.000134804
-4.8047e-05
6.06542e-05
-8.83956e-05
2.42813e-05
4.71352e-05
-4.64664e-05
4.86877e-05
-0.000210475
1.58516e-05
0.000110395
-0.000136696
-0.000119039
3.49807e-05
1.25472e-05
9.87253e-05
0.00015033
8.19443e-05
0.000162896
-4.36022e-05
-8.02709e-05
9.96008e-05
-6.93661e-06
-1.38268e-05
-6.35325e-06
-6.98143e-07
7.38513e-05
-0.000180215
6.07786e-05
0.000114369
-0.000105686
-4.27135e-05
-2.31324e-05
5.60889e-06
7.6779e-05
-0.000140389
-0.000189153
0.000110451
-9.3733e-06
0.000107575
2.85878e-05
-3.49246e-05
6.47692e-05
4.63333e-07
-9.13447e-05
-4.69679e-05
-9.82856e-05
0.000169072
-0.000145834
-7.08919e-05
9.26186e-05
3.56622e-05
0.000113494
0.000117387
-7.16496e-05
-0.000132889
0.000340025
-0.00011629
-4.62309e-06
-4.30837e-05
5.48237e-05
-9.18318e-05
-7.64232e-06
-4.04704e-05
6.77549e-05
0.000129811
2.4775e-05
-4.79151e-05
0.000167474
-0.000121734
1.16758e-05
-9.95127e-05
-0.00013477
-0.000136225
0.00010054
9.94223e-05
-0.000110482
7.66594e-05
-6.05413e-05
-0.00014832
-0.000242488
5.72654e-05
0.000159995
2.60319e-05
-0.000319591
3.22657e-06
5.33626e-05
9.03021e-05
0.000105609
8.03046e-05
3.68835e-05
-1.32644e-06
3.07502e-05
-0.000182172
0.000159712
0.000321853
-0.000126499
-0.000155623
9.77006e-05
-0.000111141
-2.09548e-05
-7.95096e-05
0.000105941
-5.82159e-05
-6.87451e-05
0.000174993
2.61884e-05
-4.84097e-05
0.000118562
1.89954e-05
-0.000200489
0.000115851
0.000154974
0.000105308
-0.000259974
-2.34019e-05
-3.48898e-05
-8.63149e-05
0.000153225
3.18743e-05
-0.000234409
5.96656e-05
4.88085e-05
5.53774e-05
4.9127e-05
-4.90601e-05
6.46381e-05
-4.93377e-05
7.99181e-05
-1.0544e-05
-3.555e-05
0.000238911
-6.39734e-05
-8.33138e-06
4.82134e-05
0.000141156
4.53972e-05
-0.000127181
-4.24212e-05
9.00076e-05
0.00010619
-1.08775e-05
1.01516e-05
-9.98643e-05
0.000173038
-0.000265342
-6.16093e-06
8.57544e-05
-0.00015083
6.3932e-05
1.54467e-05
-6.75683e-05
0.000152781
-7.71976e-05
-7.75583e-05
0.000138639
-9.58799e-05
1.06886e-05
-5.43497e-06
4.28119e-05
0.000103953
6.40792e-05
7.40786e-06
0.00010045
-2.95718e-05
-5.67791e-05
2.55413e-05
-4.5714e-06
-9.26526e-06
1.34185e-05
2.00821e-05
2.01493e-05
-1.15264e-05
5.57523e-05
1.58409e-05
-0.000109945
-9.06091e-05
0.000175994
-4.21882e-05
1.04242e-05
-6.10973e-05
4.61757e-05
-2.72598e-05
1.83445e-05
0.000169719
2.54717e-06
-8.60402e-06
-0.000139042
5.31904e-05
-0.000104518
-3.00375e-05
0.000261662
-5.69026e-06
2.77016e-05
-6.74163e-05
-9.34823e-05
0.000151858
3.96671e-05
-0.000132389
0.000222534
0.000143961
3.02019e-05
8.78987e-05
0.00010032
-7.49446e-05
-0.000179234
1.99466e-06
-8.05103e-05
-0.000278868
0.000174046
0.000108387
8.69818e-05
-4.44006e-05
-4.28692e-05
9.05711e-07
4.33449e-06
4.73945e-05
0.00011925
0.000132382
0.000133011
-0.000115663
-7.6525e-05
2.89956e-05
4.83543e-05
2.50104e-05
-0.000112033
0.000130412
0.00011991
8.09006e-05
-8.47821e-05
-0.000231872
0.000109871
-3.05838e-05
-2.4174e-05
5.4236e-05
0.000138717
2.96603e-06
-9.71836e-05
-5.84535e-05
5.49757e-05
0.000277895
-2.26721e-05
-0.000145574
7.23237e-05
0.000220642
-4.80537e-05
-5.77141e-05
-2.33649e-05
-0.000148976
-8.82458e-05
-4.17503e-05
-7.07494e-05
0.000202731
-9.09311e-05
0.00016927
-4.65576e-05
2.04425e-06
-0.000123331
-0.000126615
0.000117062
1.99594e-05
0.000139092
0.000106785
-3.75126e-05
-2.42956e-05
4.63508e-06
-4.72231e-05
-6.56474e-05
0.000126014
0.000164099
2.49457e-05
-3.19507e-05
-0.000191368
-0.000111877
0.000141839
-0.00013806
-0.000218243
5.39469e-07
4.84115e-05
-8.22892e-05
9.40191e-05
0.000100317
2.86517e-05
-2.41443e-05
0.000134893
7.31688e-05
-2.4549e-05
0.000149848
-0.000125536
3.25055e-05
-0.000116422
1.09465e-06
-2.75383e-05
0.000141438
-0.000151757
-0.000152792
-0.000116871
-5.82652e-05
0.00018385
3.89686e-05
5.87862e-05
-0.000154689
9.77911e-05
0.000232573
-5.60894e-05
2.77788e-05
2.3305e-05
-4.08662e-05
-9.07815e-05
-8.99471e-06
0.000145455
2.44131e-05
9.58964e-05
6.07322e-05
6.93998e-06
2.14275e-05
-0.00013059
0.000117465
4.91077e-05
-9.61646e-05
-6.74245e-05
4.3796e-05
-4.46835e-05
8.85077e-05
-9.59914e-06
-2.82268e-05
-1.76273e-05
-4.25156e-05
-2.32204e-05
4.90843e-05
-7.14068e-06
1.37581e-05
-0.000107429
8.08437e-05
4.89401e-05
-7.69862e-05
0.000138415
-0.000103278
-8.67706e-05
6.37677e-05
-0.00028061
-1.91829e-06
-3.9675e-05
0.000102272
8.79159e-05
8.29733e-05
6.03988e-05
-0.00016968
5.18234e-05
-0.000154988
0.000180044
0.000257573
-6.46475e-05
3.45963e-06
6.44715e-05
-2.26041e-05
-5.88185e-05
-8.38536e-05
7.61234e-05
-0.000112594
-0.00013834
0.000116628
0.00012008
-8.48294e-05
-0.000103551
-2.19893e-05
-0.000102103
-1.05877e-05
0.000100173
-1.09883e-05
-4.08571e-05
-3.22524e-05
4.35289e-05
8.69273e-06
5.07514e-05
-0.000121152
-7.98107e-05
0.00018274
-0.000179118
-0.000217122
2.04903e-05
-0.000135398
0.000125119
-2.32419e-05
-2.94063e-05
0.000126616
7.51391e-06
-0.000146904
6.48445e-05
3.1334e-05
3.96278e-06
-2.70013e-05
1.55951e-05
6.07583e-06
-0.000124042
-8.69718e-05
4.68077e-05
-3.81656e-06
-3.54137e-05
2.04375e-05
0.000170369
-9.37628e-05
-5.94463e-05
0.000114044
-3.34599e-05
-5.29226e-05
8.78497e-05
-3.00225e-05
9.3587e-05
0.000120137
-0.000288461
-8.76397e-05
-1.41459e-05
9.30696e-05
-0.000188104
2.50967e-05
7.26192e-05
-6.16363e-05
-2.73506e-06
3.25593e-05
2.65309e-05
-7.72645e-05
-6.70417e-05
-2.89162e-05
4.81537e-05
-8.29267e-05
-4.71328e-05
-4.86795e-05
0.000213888
8.50864e-05
3.33881e-05
-0.000128282
-0.000154561
-7.4569e-05
0.00011334
-9.14187e-05
6.93407e-05
-2.42916e-05
-6.28449e-05
-5.45385e-05
2.49806e-05
4.4331e-07
0.000105119
7.45729e-05
-0.00016005
-0.000141614
-1.44844e-06
6.15614e-05
0.000119616
1.95799e-06
-0.000111364
0.000131044
-0.00017869
-0.000160055
6.88247e-05
2.55231e-05
6.66175e-05
7.58981e-06
3.1663e-05
5.35103e-05
-0.000120916
-8.88868e-05
0.000189571
4.11218e-05
7.19568e-05
0.000173858
-4.57959e-05
-8.34943e-05
8.80128e-05
5.71832e-05
-3.49245e-05
-0.000112821
8.06976e-05
0.000121741
-5.67308e-05
-9.46152e-05
-5.9183e-05
-6.49435e-06
0.000127877
-1.04907e-05
-0.000147492
-0.000145938
-3.10263e-05
-8.16467e-06
-4.29527e-05
-6.19376e-06
4.22511e-05
0.000171041
-7.31238e-05
-9.70073e-05
-1.12382e-05
-7.75572e-05
-3.05764e-05
-0.00016445
1.41443e-05
6.21658e-07
0.00030203
-4.71036e-05
-1.8011e-05
-8.18219e-05
-0.000174498
-0.000120098
-2.12268e-05
6.64337e-05
8.8613e-06
0.000185771
4.18902e-05
-5.46457e-05
4.0455e-05
-1.12576e-05
-0.000180028
4.51857e-05
0.000162996
2.27191e-05
8.03883e-06
1.61276e-05
-1.94099e-05
-2.36711e-05
-0.00010777
2.69432e-05
-0.000111378
-1.62842e-05
0.000209419
-6.46559e-05
-5.61378e-05
-9.56118e-05
2.1998e-05
4.81221e-05
-5.11298e-05
-1.42977e-05
1.45321e-05
0.000118398
4.82711e-05
0.000144508
-5.75646e-05
-9.09514e-05
5.32342e-05
7.82206e-05
1.40942e-05
4.20337e-05
0.000135164
-0.000107929
-0.000130733
1.467e-05
8.41982e-05
0.000141063
7.01252e-05
-7.27685e-05
3.23341e-05
-9.76669e-05
-0.000223027
-4.54168e-05
5.88677e-05
-6.74751e-05
0.000261085
-0.000146722
9.35536e-05
4.3753e-05
-1.36185e-05
-1.42994e-05
-7.21609e-05
-0.000133738
1.94672e-05
-5.22158e-05
-0.000199662
0.000240903
-5.94296e-05
0.00017367
-7.24713e-05
1.13577e-05
-2.10935e-05
-3.42202e-05
9.22626e-06
-9.34161e-05
-0.000106495
-0.000103727
0.000245935
-3.5892e-05
-0.00013231
4.36653e-05
8.41268e-05
0.000223903
-1.13739e-05
-7.0408e-06
0.000130009
-2.76936e-05
-4.51063e-05
6.83075e-05
-0.000128604
0.000122935
4.25876e-05
-5.46661e-05
4.66738e-05
8.17666e-05
4.82877e-05
-4.31251e-05
-0.000232555
-1.4963e-05
7.32804e-05
8.2056e-05
0.000234013
6.52059e-05
-0.00016958
-0.000191122
0.00015678
-3.72995e-05
-0.000101739
-1.77886e-05
6.03108e-05
8.63876e-05
-3.71444e-05
-4.04739e-05
6.79537e-05
-7.26847e-05
3.67295e-05
-0.000110529
-0.000133439
6.75966e-05
-2.78499e-05
-4.18435e-05
8.43118e-05
-0.000165737
-9.64747e-05
0.000224735
0.000106416
-0.000133767
6.66509e-05
8.05606e-05
-7.39441e-05
1.29745e-05
0.000109295
-4.30272e-05
2.09017e-05
2.25826e-05
3.37919e-06
0.000221728
-4.36804e-05
-1.92028e-05
5.99667e-05
3.89345e-05
-7.55792e-06
1.55725e-05
2.37321e-05
-8.82535e-05
-0.000163314
-0.000175195
-0.00017508
0.000200691
-8.15641e-05
-0.000100422
-0.000101398
0.000146284
4.20843e-05
3.50326e-05
-6.9659e-05
0.000117867
0.000147618
-8.46015e-05
-0.000148814
-8.20546e-05
0.000169343
0.00017092
0.000136608
7.56143e-05
-0.00015394
-0.000222018
-0.000111908
0.000149115
-4.6952e-05
4.949e-05
3.26413e-05
-4.83674e-05
-1.67468e-05
-0.000204808
-3.49362e-05
0.000252705
3.93168e-05
-0.000255996
5.6e-05
2.97752e-05
-1.03209e-05
-0.000164749
0.000154702
0.000123411
7.20354e-05
6.18759e-05
7.05454e-05
-7.31468e-05
-2.8974e-05
6.84413e-05
-2.30751e-05
8.44974e-05
-9.86211e-05
-1.81315e-05
-6.83817e-05
-4.63985e-06
-1.42553e-05
-8.25152e-07
6.96764e-05
0.000150724
9.15469e-05
8.18372e-05
-0.000134227
-9.83708e-05
-0.000180204
-5.66528e-05
9.73966e-06
0.000186068
1.66695e-05
0.00012503
-8.14698e-06
-5.13764e-06
-0.000241895
-2.58465e-06
4.53724e-05
0.000155463
6.31621e-05
-0.000107262
-0.000153552
3.13369e-05
-6.56731e-05
-0.000117015
-0.000116975
9.75956e-06
1.91573e-06
0.000270772
1.80057e-05
1.15115e-05
0.000125205
7.45509e-05
1.43745e-05
-4.19095e-05
-9.7889e-05
0.000176974
-5.65934e-05
-6.35876e-05
-5.55888e-05
5.62737e-05
7.27945e-06
-0.000109423
0.000135492
-2.79981e-05
-0.000131891
0.000189304
9.58415e-05
-0.000160737
5.43528e-05
4.46989e-05
4.34632e-05
1.63007e-05
-2.68312e-05
7.95514e-05
-0.000107405
-4.51538e-05
-9.69439e-05
9.69621e-05
-2.50424e-05
7.8827e-05
9.83732e-05
-0.000113482
-2.42742e-05
2.28448e-05
0.000173408
-3.99596e-06
-6.43918e-05
6.13611e-05
-0.000270022
6.27539e-05
0.00012812
0.00028685
2.13466e-05
-0.00011438
-0.000154078
-1.77934e-05
7.58863e-05
-9.66401e-05
-6.96259e-05
0.000115365
3.90855e-05
-1.09063e-05
1.54703e-05
2.40649e-05
-4.08523e-05
7.13646e-05
-8.86351e-05
-4.97585e-05
-0.00017327
-4.91249e-06
-5.29378e-05
-8.54959e-05
8.24581e-06
2.26705e-05
5.7247e-05
2.81116e-05
-3.57556e-05
-9.42954e-05
-6.8068e-05
-6.25523e-06
9.09937e-06
0.000163888
0.000159204
-0.000144377
-0.000136229
-0.000138303
-0.000107575
0.000179126
-3.64955e-05
-0.000103116
0.000188931
9.37984e-05
8.3621e-05
-9.23604e-06
-6.3106e-05
7.10946e-05
-6.82403e-06
1.50554e-05
5.3312e-05
4.17118e-05
-7.81612e-07
2.49699e-05
1.69137e-05
3.43407e-05
-5.2136e-05
6.15191e-05
-7.75093e-06
4.63253e-05
-6.56988e-05
7.15668e-05
-3.72069e-05
0.000134034
-0.000225376
-8.67192e-05
-0.000115915
0.000124426
-1.22306e-06
0.000130558
-0.000295396
-0.000237436
0.000179624
0.000180764
-0.000111646
-0.000178103
-3.66591e-05
-0.000172314
-2.62633e-06
0.000328706
9.30934e-05
-4.47094e-05
8.35659e-05
8.87034e-05
7.59303e-05
-0.000143189
-0.000147109
-4.34236e-05
-0.000118533
-3.75963e-05
0.000128842
6.02122e-05
-7.5717e-05
-7.83226e-05
-0.000108096
-2.0904e-05
-2.85102e-05
-1.22831e-05
-3.3485e-05
5.06762e-05
-0.000150235
-1.34679e-05
9.77954e-05
5.50826e-05
-3.61463e-05
3.67169e-05
6.76218e-05
-8.65409e-05
4.2932e-05
3.3561e-05
8.38393e-05
-0.000102206
1.76793e-05
9.3925e-05
-1.15179e-05
-5.50738e-05
5.29473e-05
-0.000171091
-0.00019772
5.29251e-05
0.000186043
0.000160582
-3.53276e-05
7.09775e-05
-0.000104651
-1.57892e-05
-2.81753e-05
0.000103135
-4.77651e-05
3.89237e-05
3.94232e-05
9.80822e-06
2.41417e-05
0.000183097
-4.88933e-05
-0.000193304
0.000131714
0.000235284
-0.000133494
-7.83083e-05
-0.000132075
0.000125446
4.1578e-05
-0.000221341
-4.37332e-05
0.000173562
3.79996e-05
-5.85654e-05
3.70579e-05
0.00018952
1.0786e-05
-6.98119e-05
7.56443e-06
2.3947e-05
2.38733e-05
-6.76315e-05
2.94138e-05
6.33334e-05
5.57477e-05
-0.000103493
-0.000101929
-1.12158e-05
0.000144303
-1.40795e-05
-4.61244e-05
-0.000118305
-8.12215e-05
-5.68267e-05
9.74536e-05
-0.000132933
6.32065e-05
8.71777e-05
0.000206478
5.4271e-05
-0.000203618
-8.14904e-05
-7.47144e-05
8.20486e-05
1.34258e-05
5.96703e-05
-0.000226008
4.40103e-05
6.45686e-05
-3.66399e-05
-8.32744e-05
-1.69628e-05
-9.41504e-05
6.19025e-05
-1.53079e-05
-9.13923e-05
1.62966e-05
-8.77219e-05
-3.56112e-05
0.000103492
-0.000179607
0.000144301
0.000141505
-0.000137013
7.80681e-07
-1.82141e-05
-0.000126926
-2.05662e-05
-3.19125e-05
-1.11012e-05
-6.91134e-06
-5.21858e-05
9.72672e-05
-0.000161703
-0.000151279
2.20252e-05
9.38058e-05
-7.66944e-07
-5.50358e-05
-3.49985e-05
-9.95804e-05
1.99561e-05
-1.95511e-05
-0.000108014
6.64345e-05
-4.56728e-05
-0.000155281
-5.44817e-05
4.28758e-06
6.97537e-05
-7.31131e-05
-6.18491e-06
-1.42991e-05
8.57488e-05
-6.32745e-05
0.000145215
1.70202e-05
-0.000121394
0.000271535
-6.92181e-05
3.47671e-05
2.72507e-05
0.000118681
-3.58148e-05
-2.78231e-05
0.000142836
4.65494e-05
0.000134817
-9.65252e-05
8.17608e-06
1.3748e-05
-4.70022e-05
0.000125676
-0.000140371
-7.39156e-05
-3.67727e-05
-0.000185719
-0.000153933
4.89861e-05
2.96315e-05
0.000157438
8.88817e-05
-0.000153122
-0.000120384
-1.99163e-06
5.7586e-06
-7.39796e-06
-0.000122399
-2.98908e-05
-8.32489e-05
8.2775e-05
0.000102406
0.000112409
0.000100186
-0.000171756
-2.23307e-05
0.000103598
0.000171942
6.18838e-05
0.000120571
-2.59415e-05
8.48151e-05
-3.1081e-05
-0.000143283
5.67315e-05
-9.22285e-05
5.94603e-06
-6.78385e-05
4.87934e-05
2.97606e-05
6.16109e-05
1.56339e-05
-4.13093e-05
6.69032e-05
4.28781e-06
4.49726e-05
-3.27075e-05
7.94721e-06
-4.04727e-05
0.000131959
-0.000127848
-5.63811e-05
-6.35311e-05
0.000139043
5.71043e-05
-0.00020961
9.21194e-06
-6.3437e-05
-6.45827e-05
4.75455e-05
-0.00014871
8.83263e-05
-0.000109694
1.27231e-05
-5.57023e-05
-4.6612e-05
-8.61689e-05
5.98866e-05
1.99589e-05
7.91491e-05
-8.56426e-05
1.77952e-06
3.13214e-05
4.55037e-05
-0.000128896
-3.51164e-05
9.6075e-05
-7.24918e-06
-7.68108e-06
0.000152497
0.000172223
-8.28104e-05
-0.000375604
-3.94159e-06
0.000215902
5.11606e-05
-7.59989e-05
-0.000210555
3.13723e-05
0.000131815
4.66172e-05
-3.13704e-05
7.12436e-05
-0.000258783
8.8494e-05
8.35971e-05
-0.0001291
-9.17884e-05
0.000121677
-4.17626e-05
-6.64215e-05
7.77799e-05
6.70725e-05
3.4826e-05
5.24425e-05
0.000178557
-0.000173855
-8.19669e-05
0.000141823
-0.000114063
3.2647e-05
0.000119366
9.35995e-05
1.65243e-05
5.14466e-05
7.15826e-06
9.00923e-05
-1.683e-05
3.84053e-05
-0.000131348
2.57228e-05
0.000119988
0.000134471
-0.000119913
-1.82742e-05
-0.000124928
-0.000157257
8.72012e-05
0.000115447
9.77836e-05
7.02834e-06
-0.000103466
-6.21937e-06
5.84651e-05
-3.37147e-05
1.6368e-05
-0.000138707
-0.000130119
0.000170145
0.000151369
-7.98296e-05
-3.70806e-05
6.51146e-06
9.12035e-05
-1.8807e-05
-6.55667e-05
-0.000116926
-6.14899e-05
-5.00141e-05
5.80982e-05
-4.51976e-05
0.000125764
0.000102648
-3.20149e-05
-0.000122315
-6.59726e-05
-2.99518e-05
-9.76496e-05
-2.76421e-05
9.82875e-05
7.86317e-05
9.15994e-05
-0.000127822
6.40737e-05
0.000156742
1.70805e-05
-4.71692e-05
-0.000122718
0.000126316
-3.49281e-05
-0.000120816
-4.07583e-05
-6.44719e-05
-9.11049e-05
7.66043e-05
0.000147971
-3.98791e-05
0.000160374
9.46998e-05
3.7808e-05
0.000196029
-7.5096e-05
5.01173e-05
-2.1195e-05
-7.35314e-06
7.67356e-05
3.89477e-05
6.49436e-05
-0.00019729
0.000172889
2.93918e-05
4.53752e-06
-0.000141
9.64757e-06
-3.26231e-05
2.90435e-05
0.000155954
-0.000171685
-1.97157e-05
5.6904e-05
-0.000162353
0.000106245
5.98223e-05
-0.000191165
4.46634e-05
0.000114495
0.00020155
6.79145e-05
3.55951e-05
-7.7988e-05
0.000160745
4.12476e-05
-0.000113524
-0.000149408
9.81174e-05
0.000245803
3.61198e-05
-0.000155804
-4.44476e-05
2.90321e-05
-1.46881e-06
3.52249e-06
0.00027865
1.22341e-05
0.000135709
-4.16653e-05
-0.000136936
-0.000197084
-5.49575e-05
7.64241e-05
0.000129475
-3.1929e-05
6.30247e-05
-1.92365e-05
4.57863e-05
-0.000137483
1.81645e-05
2.94931e-05
-5.54278e-05
5.68598e-05
0.000111397
0.000139907
-0.000193909
0.000107027
9.18796e-05
0.000167497
-5.15925e-05
-0.000215322
0.00014695
-0.000200445
1.79538e-05
-8.16841e-05
4.80377e-05
-6.27695e-05
-0.000108207
0.00010516
0.000132561
3.52053e-05
7.10161e-05
-0.000113841
8.2926e-05
0.000115082
-2.79865e-05
4.46918e-07
-6.58437e-05
8.60326e-05
0.000221263
3.76999e-06
1.73517e-05
8.14807e-05
0.000158482
-0.000104834
-8.9908e-05
-8.22982e-05
6.80068e-05
-9.73281e-05
0.000228825
-6.27239e-05
-0.000106053
5.84343e-05
2.1751e-06
-0.000181701
6.91926e-05
4.74963e-05
-0.000139382
-0.000105453
-6.91214e-05
0.000182301
8.96272e-05
2.88257e-05
2.84886e-05
-6.36016e-05
0.000108679
-4.67472e-05
-2.86878e-05
-0.000169176
3.26068e-05
0.000115456
2.30845e-05
5.30139e-05
-8.83322e-05
-3.31854e-05
-6.67039e-05
-6.81141e-05
-4.81568e-05
-4.59949e-05
-0.000220535
-9.01662e-05
0.000150095
4.04712e-05
-0.000104705
-0.00018406
-4.67154e-05
8.876e-05
8.0462e-05
7.308e-05
0.000221929
4.91599e-06
-4.72468e-05
-3.46365e-05
7.10335e-05
-0.000115031
5.28712e-06
1.68668e-05
-2.59606e-07
0.000116428
-8.23732e-05
-1.71706e-05
7.32229e-06
7.12182e-06
5.64324e-05
7.54608e-05
-1.74805e-05
-0.000212953
-0.00015275
0.000215159
-0.000129885
0.000163727
-2.32495e-05
-2.42885e-05
0.000123779
-8.07707e-05
2.98771e-05
0.000142615
3.62245e-05
4.60987e-05
-0.000182423
4.55604e-05
-4.63845e-06
-8.53577e-05
-8.13686e-05
0.000194047
-9.48276e-05
-7.84434e-05
0.000179536
1.57366e-05
3.74998e-05
-1.33307e-05
-3.54368e-07
6.95989e-06
9.24957e-05
-5.06715e-05
-2.15969e-05
7.7656e-05
1.03114e-05
-7.94937e-05
-0.000124069
-0.000127845
0.000124653
-8.04171e-05
-4.0734e-05
0.000113537
-8.57842e-05
0.000131126
8.94726e-05
-6.77557e-05
7.6114e-05
5.44584e-05
-1.16383e-05
-3.77663e-05
-2.15397e-05
-0.00015063
-2.81675e-05
9.82767e-05
0.000216844
0.000125384
1.86262e-05
7.77321e-05
-6.74891e-05
3.78791e-05
1.57872e-05
7.25815e-06
5.98514e-06
-0.000159106
2.55632e-05
2.73116e-05
-0.000193541
-2.2925e-05
7.40816e-05
3.49197e-05
-4.98334e-05
0.000102139
-8.9074e-06
-4.77216e-05
4.04902e-05
-7.21815e-05
-4.37378e-05
6.24666e-05
0.000153068
-9.69318e-05
-4.99457e-05
-0.000117713
-3.43039e-05
6.39311e-05
6.07816e-05
-3.09986e-05
-9.00186e-05
0.000117668
-8.08709e-05
-0.000116225
-2.68533e-05
0.000244329
-4.41665e-05
-0.000115327
0.000174602
-6.48971e-05
-5.44289e-05
0.000152656
-0.000156377
-0.000105388
7.21363e-05
-3.68239e-05
0.000114746
-0.00011655
-5.57979e-06
-7.7018e-06
-7.9961e-06
-4.45216e-05
-0.000119691
-0.000138939
1.25765e-05
-5.36188e-05
-6.7858e-05
1.6876e-05
7.60868e-05
0.000133269
0.000154789
-0.000185541
-0.000160797
8.41552e-05
9.90079e-05
0.000110942
-0.000115694
-0.00010739
8.11829e-05
5.26728e-05
-9.6407e-05
3.00407e-05
0.000118561
0.000190279
0.000102017
-0.000141664
2.82971e-05
-9.92736e-05
4.29805e-07
2.29727e-05
3.72221e-05
-2.53028e-05
-0.000121184
-0.000227068
0.000161828
0.000232455
-0.000126807
-0.000199682
0.000226138
7.05631e-05
3.82686e-05
-3.18248e-05
-0.00012968
-4.5201e-05
0.000170193
0.000100903
0.000121313
-6.51031e-05
-0.000210784
-2.97751e-05
5.18442e-05
-0.000138892
5.25861e-05
0.000203718
6.83537e-05
-0.000122091
-8.89688e-05
-7.50502e-05
-8.69326e-05
3.54385e-05
0.000185533
-0.000116001
-5.78134e-05
3.54545e-05
-0.00020418
1.98828e-05
8.87208e-05
1.58621e-05
-3.34163e-05
-0.000210964
0.000224784
7.9502e-05
-0.000113293
2.37394e-05
-8.64994e-05
1.28553e-05
0.000204031
-5.57558e-05
-3.01526e-05
-2.94105e-05
-0.000121678
-5.46686e-07
0.000120633
-3.56697e-05
4.50178e-06
-0.000181325
0.00010879
-0.000260964
0.000247531
-8.73569e-05
4.11319e-06
-0.000154506
-8.8841e-05
-4.46797e-05
-0.00018094
9.83524e-05
0.000184264
1.4761e-05
-2.96463e-05
-1.99141e-05
0.000103338
-2.91948e-05
2.67368e-05
7.3343e-05
3.44012e-05
2.83929e-05
6.90508e-05
7.37751e-05
-2.99276e-05
-7.3863e-05
-5.82729e-06
-5.1355e-05
-6.44731e-06
2.44905e-05
3.6886e-05
4.29698e-05
-4.27113e-05
0.000135784
-0.00012645
-9.52168e-05
-0.000125868
2.04374e-05
6.52126e-05
0.000194429
0.000237434
8.8285e-05
5.49492e-06
-3.2022e-05
0.000150786
-1.05296e-05
0.000128416
5.56686e-05
4.13372e-05
2.61435e-05
-5.17685e-05
9.60061e-05
-4.32046e-05
-5.01072e-05
0.00010056
-5.20105e-05
0.000148727
-6.03372e-05
1.33241e-05
-1.06926e-05
5.34207e-05
7.47396e-05
4.66977e-06
-2.00438e-05
-0.000140152
-0.000132932
-4.92e-05
-4.99887e-05
-0.000137551
2.60852e-05
-0.000106778
4.91794e-05
0.000102693
0.000115071
-1.66709e-05
-4.23053e-06
-0.00015888
-0.000125255
-5.75499e-06
0.000205924
0.000137719
0.000113042
-0.000154237
-1.86032e-05
0.000125224
-8.46887e-05
-0.000126805
-1.05457e-05
-8.8102e-06
2.6667e-05
-0.00010795
2.71167e-05
7.72439e-06
-0.000106193
0.00010295
6.64464e-05
3.22078e-05
4.02094e-05
-4.14768e-05
-8.46712e-06
-0.000179803
-4.70352e-05
4.2321e-05
-8.48055e-05
-4.3828e-06
0.000132408
6.82881e-05
-0.000185959
-3.12182e-05
5.07206e-05
0.000136722
-9.86881e-05
3.19153e-05
-7.3339e-05
7.5604e-05
-2.71793e-05
-0.000186787
-0.00014492
0.000267657
0.000103793
9.79831e-05
-0.000279763
4.19138e-05
0.000109655
-3.13257e-05
-3.70325e-05
6.04668e-05
5.313e-05
-0.00012085
-2.6677e-05
7.95266e-05
-0.000191519
-6.35631e-05