# vtk DataFile Version 1.0
Electron Density - Current Sheet 
ASCII
DATASET STRUCTURED_POINTS
DIMENSIONS 256 128 1
ORIGIN 0 0 0
SPACING 0.15625 0.15625 1
POINT_DATA 32768
SCALARS rhoe float
LOOKUP_TABLE default
-2.02648e-18
-1.79443e-18
-1.68676e-18
-1.89383e-18
-2.20427e-18
-1.83518e-18
-1.67574e-18
-1.95567e-18
-1.78503e-18
-1.69854e-18
-2.18027e-18
-1.93504e-18
-1.85092e-18
-1.85132e-18
-1.79193e-18
-1.84059e-18
-1.7844e-18
-1.97963e-18
-1.97728e-18
-1.56494e-18
-2.07881e-18
-2.0962e-18
-1.75005e-18
-1.83843e-18
-2.08872e-18
-2.05579e-18
-1.65084e-18
-1.52192e-18
-1.84384e-18
-2.12437e-18
-1.95976e-18
-1.74145e-18
-1.80722e-18
-1.85464e-18
-1.97074e-18
-1.67658e-18
-2.16493e-18
-1.8794e-18
-2.06069e-18
-1.93722e-18
-1.64575e-18
-1.8771e-18
-2.02371e-18
-1.6346e-18
-1.8023e-18
-1.92246e-18
-1.79751e-18
-2.11353e-18
-1.98248e-18
-1.83361e-18
-2.04927e-18
-2.12525e-18
-1.99425e-18
-1.45182e-18
-1.82808e-18
-2.10839e-18
-1.7654e-18
-1.75224e-18
-1.72179e-18
-1.94704e-18
-2.17538e-18
-2.06102e-18
-2.1903e-18
-1.91366e-18
-1.90352e-18
-1.66858e-18
-1.70271e-18
-1.84568e-18
-1.82415e-18
-2.15761e-18
-1.94444e-18
-1.72759e-18
-1.7963e-18
-1.73026e-18
-1.84526e-18
-1.98435e-18
-1.86891e-18
-1.81237e-18
-1.66413e-18
-1.84374e-18
-1.81238e-18
-2.06127e-18
-1.77958e-18
-1.92475e-18
-1.92776e-18
-1.86732e-18
-1.84685e-18
-1.7686e-18
-1.87508e-18
-2.02293e-18
-1.96992e-18
-1.4573e-18
-1.75547e-18
-1.97599e-18
-1.8766e-18
-2.13881e-18
-1.92082e-18
-1.81014e-18
-1.8345e-18
-1.7273e-18
-1.8761e-18
-1.8306e-18
-1.95689e-18
-1.79857e-18
-1.77075e-18
-1.70978e-18
-1.81336e-18
-1.95993e-18
-1.85954e-18
-1.927e-18
-2.14172e-18
-1.92037e-18
-1.71568e-18
-1.7892e-18
-1.87788e-18
-1.97613e-18
-2.04096e-18
-1.7722e-18
-1.56565e-18
-1.99562e-18
-1.97703e-18
-1.95607e-18
-1.82411e-18
-1.69559e-18
-1.84248e-18
-2.00866e-18
-1.96958e-18
-1.74665e-18
-1.83959e-18
-1.82494e-18
-1.75767e-18
-1.92178e-18
-2.04429e-18
-1.86764e-18
-1.89232e-18
-1.83336e-18
-1.72053e-18
-1.88052e-18
-2.05324e-18
-1.89857e-18
-1.75022e-18
-1.72942e-18
-1.86308e-18
-2.04837e-18
-1.82331e-18
-1.71122e-18
-1.69964e-18
-1.93246e-18
-2.12106e-18
-2.01398e-18
-1.75434e-18
-1.76111e-18
-1.84125e-18
-1.78238e-18
-1.93849e-18
-1.8608e-18
-2.11283e-18
-1.87513e-18
-1.93909e-18
-1.85848e-18
-2.0452e-18
-2.04045e-18
-1.81643e-18
-1.87111e-18
-2.0567e-18
-1.77708e-18
-1.81996e-18
-1.91425e-18
-1.9954e-18
-1.61689e-18
-1.77454e-18
-2.13014e-18
-2.00916e-18
-1.67499e-18
-1.71705e-18
-1.82926e-18
-1.87419e-18
-1.77755e-18
-1.81399e-18
-2.26075e-18
-1.75161e-18
-1.76874e-18
-1.86687e-18
-2.08595e-18
-1.8567e-18
-1.43095e-18
-1.78817e-18
-2.12785e-18
-1.96878e-18
-2.13007e-18
-1.79705e-18
-1.59602e-18
-1.8249e-18
-1.77649e-18
-1.8202e-18
-1.91925e-18
-1.80016e-18
-1.83401e-18
-1.85213e-18
-2.06578e-18
-1.90316e-18
-1.84195e-18
-1.88386e-18
-1.97408e-18
-1.97837e-18
-1.91852e-18
-1.82188e-18
-1.91485e-18
-1.68847e-18
-2.00314e-18
-1.87333e-18
-1.77826e-18
-1.79926e-18
-1.80098e-18
-2.02927e-18
-1.91907e-18
-1.79411e-18
-1.99214e-18
-2.05923e-18
-1.87052e-18
-2.01149e-18
-1.82067e-18
-1.75687e-18
-1.81525e-18
-1.86962e-18
-1.76338e-18
-1.76451e-18
-1.98086e-18
-1.71037e-18
-1.95569e-18
-1.72991e-18
-1.83514e-18
-2.06583e-18
-1.80396e-18
-1.69376e-18
-1.82016e-18
-2.02603e-18
-1.88981e-18
-1.83824e-18
-1.87635e-18
-1.99246e-18
-1.82132e-18
-1.99833e-18
-1.81444e-18
-1.82893e-18
-1.85686e-18
-1.9422e-18
-2.1598e-18
-1.75825e-18
-1.88852e-18
-1.82786e-18
-1.84919e-18
-1.97431e-18
-1.99695e-18
-1.74889e-18
-1.83397e-18
-2.92246e-18
-2.65534e-18
-2.73486e-18
-2.82943e-18
-2.98007e-18
-2.68625e-18
-2.9852e-18
-2.6675e-18
-2.75531e-18
-2.73996e-18
-2.84703e-18
-2.93115e-18
-2.8295e-18
-2.89905e-18
-2.83752e-18
-2.8558e-18
-2.76889e-18
-2.71021e-18
-3.00817e-18
-2.55357e-18
-2.82707e-18
-2.76179e-18
-2.70871e-18
-2.94125e-18
-2.95532e-18
-2.79077e-18
-2.61423e-18
-2.66322e-18
-2.90564e-18
-2.91051e-18
-2.62389e-18
-2.74574e-18
-2.87838e-18
-2.72212e-18
-3.00822e-18
-2.85337e-18
-2.83744e-18
-2.91261e-18
-2.85973e-18
-2.61003e-18
-2.93451e-18
-2.72725e-18
-2.78185e-18
-2.63385e-18
-2.8388e-18
-2.85292e-18
-2.76666e-18
-2.93126e-18
-2.83977e-18
-2.63581e-18
-2.75462e-18
-3.12265e-18
-3.07373e-18
-2.40009e-18
-2.79143e-18
-2.68602e-18
-2.92223e-18
-2.95429e-18
-2.51019e-18
-2.81971e-18
-2.71196e-18
-2.89925e-18
-2.84489e-18
-2.63817e-18
-3.04081e-18
-2.84982e-18
-2.74941e-18
-2.85704e-18
-2.50244e-18
-2.83252e-18
-2.86691e-18
-2.81543e-18
-2.86107e-18
-2.73112e-18
-3.17328e-18
-2.83574e-18
-2.61375e-18
-2.86543e-18
-2.81128e-18
-2.78053e-18
-2.72493e-18
-2.96031e-18
-3.07267e-18
-2.60714e-18
-2.6311e-18
-2.77372e-18
-2.79161e-18
-2.92572e-18
-2.87828e-18
-2.84178e-18
-3.05182e-18
-2.78742e-18
-2.73319e-18
-2.98808e-18
-2.64826e-18
-2.8622e-18
-2.79978e-18
-2.96809e-18
-2.56704e-18
-2.52767e-18
-2.95383e-18
-2.7542e-18
-2.90047e-18
-2.88473e-18
-2.68161e-18
-2.54528e-18
-2.93613e-18
-3.1361e-18
-2.82653e-18
-2.86093e-18
-2.86878e-18
-2.63385e-18
-2.96882e-18
-2.83085e-18
-2.46315e-18
-2.82479e-18
-2.82843e-18
-2.83928e-18
-2.69658e-18
-2.65524e-18
-3.22403e-18
-3.25279e-18
-2.76553e-18
-2.92033e-18
-2.54852e-18
-2.86956e-18
-3.03668e-18
-2.8566e-18
-2.45096e-18
-2.63204e-18
-3.06364e-18
-2.70028e-18
-3.05051e-18
-2.77887e-18
-2.69959e-18
-2.90046e-18
-2.65532e-18
-2.93397e-18
-2.94689e-18
-2.60346e-18
-2.48551e-18
-2.92461e-18
-2.83588e-18
-2.83292e-18
-2.89981e-18
-2.95012e-18
-2.80745e-18
-2.46114e-18
-2.80848e-18
-3.00267e-18
-2.79963e-18
-2.6558e-18
-2.83136e-18
-2.94249e-18
-2.90589e-18
-2.73418e-18
-2.85274e-18
-2.70093e-18
-2.91474e-18
-2.80119e-18
-2.77277e-18
-2.88974e-18
-2.57373e-18
-2.76432e-18
-3.05741e-18
-2.7273e-18
-2.80346e-18
-2.75158e-18
-2.67485e-18
-3.0068e-18
-2.72524e-18
-2.62242e-18
-2.89507e-18
-3.01377e-18
-2.83789e-18
-2.72958e-18
-2.77633e-18
-2.93455e-18
-2.84836e-18
-2.90488e-18
-2.53562e-18
-2.81085e-18
-2.89321e-18
-2.88827e-18
-2.81736e-18
-2.68097e-18
-2.84847e-18
-2.58913e-18
-2.79862e-18
-2.94795e-18
-2.75963e-18
-2.99433e-18
-2.86523e-18
-2.77944e-18
-2.72014e-18
-2.96976e-18
-2.88258e-18
-2.76103e-18
-2.6014e-18
-2.77936e-18
-2.89608e-18
-2.79047e-18
-2.87945e-18
-2.82007e-18
-2.77023e-18
-2.62813e-18
-2.82382e-18
-2.87539e-18
-3.01823e-18
-2.94989e-18
-2.77049e-18
-2.89828e-18
-3.11218e-18
-2.60574e-18
-2.68705e-18
-2.62982e-18
-2.75649e-18
-2.92508e-18
-2.88441e-18
-2.91071e-18
-2.68109e-18
-2.54112e-18
-2.87536e-18
-2.92929e-18
-2.8595e-18
-2.77925e-18
-2.88825e-18
-2.8779e-18
-2.91247e-18
-2.99e-18
-2.63975e-18
-2.4297e-18
-2.91076e-18
-2.91467e-18
-2.91173e-18
-2.83774e-18
-2.67973e-18
-2.97774e-18
-2.81034e-18
-2.7168e-18
-2.90671e-18
-2.80763e-18
-2.57101e-18
-2.68097e-18
-3.01e-18
-2.75804e-18
-2.5857e-18
-3.0645e-18
-3.03858e-18
-2.59738e-18
-2.8135e-18
-3.0182e-18
-2.93701e-18
-2.64532e-18
-2.84005e-18
-2.69097e-18
-5.18596e-18
-5.21851e-18
-5.02388e-18
-5.24537e-18
-5.52984e-18
-5.1761e-18
-5.39799e-18
-4.80136e-18
-5.11832e-18
-5.31372e-18
-4.80234e-18
-5.08428e-18
-5.3108e-18
-5.69321e-18
-5.30108e-18
-5.29458e-18
-5.2088e-18
-5.18549e-18
-5.07108e-18
-4.71278e-18
-5.17844e-18
-5.40027e-18
-5.41273e-18
-5.4409e-18
-5.19068e-18
-5.28386e-18
-5.45736e-18
-4.95067e-18
-5.07243e-18
-5.34295e-18
-4.71874e-18
-5.05328e-18
-5.17082e-18
-5.41143e-18
-5.30563e-18
-5.51775e-18
-5.2871e-18
-4.86783e-18
-5.36793e-18
-5.09174e-18
-5.13405e-18
-4.9373e-18
-4.74072e-18
-5.38858e-18
-5.33483e-18
-5.46539e-18
-5.82515e-18
-4.94836e-18
-4.84195e-18
-4.96789e-18
-5.49343e-18
-4.88102e-18
-5.65575e-18
-4.92598e-18
-5.26028e-18
-4.66715e-18
-5.07815e-18
-5.44622e-18
-5.34069e-18
-5.66387e-18
-5.57996e-18
-5.17925e-18
-5.17806e-18
-5.03196e-18
-5.11115e-18
-5.02994e-18
-5.30924e-18
-5.06382e-18
-5.06992e-18
-4.89484e-18
-5.31962e-18
-5.0466e-18
-4.90037e-18
-5.33174e-18
-5.11962e-18
-5.18768e-18
-5.31676e-18
-5.62179e-18
-4.90812e-18
-5.48622e-18
-5.66271e-18
-4.83795e-18
-5.28285e-18
-5.09227e-18
-5.14345e-18
-4.84013e-18
-5.35364e-18
-5.25396e-18
-5.32805e-18
-5.13358e-18
-5.73641e-18
-5.09155e-18
-4.68273e-18
-5.23165e-18
-5.14784e-18
-5.3796e-18
-5.1497e-18
-5.4274e-18
-5.05458e-18
-5.19186e-18
-4.95419e-18
-4.73919e-18
-5.46092e-18
-5.6945e-18
-5.31253e-18
-4.386e-18
-4.83109e-18
-5.35157e-18
-5.23378e-18
-5.24075e-18
-5.61006e-18
-5.17708e-18
-5.22944e-18
-5.29186e-18
-4.90987e-18
-5.36355e-18
-5.14103e-18
-5.6863e-18
-5.0556e-18
-4.84937e-18
-5.43207e-18
-5.20675e-18
-5.37624e-18
-5.11241e-18
-4.75021e-18
-5.71696e-18
-5.63394e-18
-5.19745e-18
-5.04734e-18
-5.04068e-18
-5.26528e-18
-5.11857e-18
-4.85064e-18
-5.39085e-18
-5.33812e-18
-4.88082e-18
-5.06089e-18
-5.13476e-18
-5.61551e-18
-5.59726e-18
-4.59545e-18
-5.08484e-18
-5.43192e-18
-5.25971e-18
-5.05322e-18
-5.36965e-18
-5.33689e-18
-4.93629e-18
-5.48953e-18
-5.12657e-18
-4.99586e-18
-4.95017e-18
-5.04301e-18
-5.30503e-18
-5.046e-18
-4.9545e-18
-5.11068e-18
-5.50961e-18
-5.27938e-18
-5.62498e-18
-4.75963e-18
-5.88534e-18
-5.25966e-18
-4.79915e-18
-5.02193e-18
-4.94991e-18
-5.11593e-18
-5.37325e-18
-5.68611e-18
-4.82314e-18
-4.98444e-18
-5.31954e-18
-5.70758e-18
-5.05486e-18
-5.13537e-18
-5.1328e-18
-5.32482e-18
-5.40609e-18
-5.22149e-18
-4.92249e-18
-4.64428e-18
-5.27981e-18
-5.08402e-18
-4.9577e-18
-5.79486e-18
-5.33002e-18
-5.59512e-18
-5.22327e-18
-4.86601e-18
-5.25471e-18
-4.99934e-18
-4.84519e-18
-5.35842e-18
-5.25043e-18
-5.23495e-18
-5.23255e-18
-5.57906e-18
-5.0573e-18
-4.70509e-18
-5.06002e-18
-5.65478e-18
-5.02587e-18
-5.42641e-18
-5.42559e-18
-5.07751e-18
-5.39461e-18
-5.38696e-18
-5.01703e-18
-5.37809e-18
-4.82347e-18
-5.03987e-18
-4.90463e-18
-5.49684e-18
-5.25029e-18
-5.31262e-18
-4.74777e-18
-5.28446e-18
-5.33966e-18
-4.99158e-18
-4.8559e-18
-5.02148e-18
-5.6019e-18
-5.39259e-18
-5.43134e-18
-4.99903e-18
-4.66516e-18
-5.28007e-18
-5.64687e-18
-5.3825e-18
-5.424e-18
-5.29788e-18
-5.07409e-18
-5.31943e-18
-5.20033e-18
-4.60638e-18
-4.70862e-18
-5.43727e-18
-5.68991e-18
-5.20008e-18
-5.15598e-18
-5.25757e-18
-5.14755e-18
-5.0942e-18
-5.22075e-18
-5.29703e-18
-5.73076e-18
-4.78329e-18
-4.83618e-18
-5.31803e-18
-4.99277e-18
-5.28089e-18
-5.51829e-18
-5.45774e-18
-4.73867e-18
-5.19514e-18
-5.18193e-18
-9.56852e-18
-1.02002e-17
-1.00419e-17
-9.35888e-18
-9.65972e-18
-1.01304e-17
-9.58755e-18
-9.14211e-18
-9.96523e-18
-1.00436e-17
-8.94498e-18
-9.63331e-18
-1.05398e-17
-9.88959e-18
-1.00384e-17
-9.5128e-18
-9.74881e-18
-9.02183e-18
-9.4215e-18
-9.96255e-18
-1.0496e-17
-9.97376e-18
-9.98575e-18
-8.72133e-18
-1.00076e-17
-9.7845e-18
-9.51617e-18
-9.51143e-18
-1.01775e-17
-9.46473e-18
-9.57586e-18
-9.24183e-18
-9.20523e-18
-1.01875e-17
-9.9245e-18
-1.04378e-17
-9.4913e-18
-9.71582e-18
-9.72787e-18
-9.76721e-18
-8.9604e-18
-9.16579e-18
-9.4873e-18
-1.02949e-17
-9.56054e-18
-9.92322e-18
-1.05149e-17
-9.77174e-18
-9.34575e-18
-1.03828e-17
-9.39289e-18
-9.62469e-18
-9.21779e-18
-9.73246e-18
-8.92951e-18
-9.84487e-18
-1.03773e-17
-9.13353e-18
-9.61598e-18
-9.96393e-18
-9.6708e-18
-1.01986e-17
-1.00731e-17
-9.4648e-18
-8.59089e-18
-9.16644e-18
-9.88116e-18
-1.04673e-17
-9.98738e-18
-9.82614e-18
-1.02695e-17
-8.90938e-18
-9.57145e-18
-1.00895e-17
-8.48764e-18
-9.47249e-18
-9.5835e-18
-1.10523e-17
-1.01173e-17
-9.48855e-18
-9.52113e-18
-9.68743e-18
-9.94562e-18
-9.75427e-18
-9.66709e-18
-9.24609e-18
-9.54143e-18
-1.02699e-17
-9.7494e-18
-9.54109e-18
-9.68676e-18
-9.99214e-18
-9.03218e-18
-9.7533e-18
-1.05428e-17
-9.62854e-18
-9.5398e-18
-9.53087e-18
-1.01277e-17
-9.69079e-18
-9.41425e-18
-8.51968e-18
-1.00448e-17
-1.01542e-17
-9.67303e-18
-1.00569e-17
-9.4695e-18
-9.42807e-18
-9.95871e-18
-1.01164e-17
-1.05124e-17
-9.11314e-18
-9.11087e-18
-9.40278e-18
-1.01758e-17
-1.04122e-17
-8.50472e-18
-9.93817e-18
-1.05331e-17
-9.20905e-18
-1.04044e-17
-1.02848e-17
-9.3374e-18
-8.78682e-18
-8.43108e-18
-1.05536e-17
-1.02053e-17
-9.70656e-18
-9.50071e-18
-9.0785e-18
-9.56799e-18
-1.00942e-17
-1.05794e-17
-1.00665e-17
-9.59617e-18
-1.01919e-17
-1.02348e-17
-9.2417e-18
-9.12415e-18
-9.4857e-18
-8.47363e-18
-9.82558e-18
-1.09555e-17
-9.67796e-18
-1.01519e-17
-9.06632e-18
-8.77191e-18
-9.74201e-18
-9.9601e-18
-9.44871e-18
-9.82022e-18
-9.47122e-18
-1.06308e-17
-8.99308e-18
-1.01357e-17
-9.39919e-18
-9.96868e-18
-9.66896e-18
-1.02079e-17
-1.03411e-17
-9.1823e-18
-9.19814e-18
-9.58145e-18
-9.14087e-18
-1.01657e-17
-1.05753e-17
-1.00418e-17
-8.53474e-18
-1.02366e-17
-9.67087e-18
-9.48514e-18
-1.01384e-17
-9.89975e-18
-9.88173e-18
-8.95976e-18
-9.66003e-18
-1.06253e-17
-9.59884e-18
-9.19898e-18
-9.22351e-18
-9.89612e-18
-1.05972e-17
-9.92664e-18
-9.00617e-18
-9.79213e-18
-1.00366e-17
-9.68012e-18
-9.79329e-18
-9.40008e-18
-9.93843e-18
-8.91715e-18
-9.21295e-18
-9.64025e-18
-9.94339e-18
-1.10608e-17
-9.86831e-18
-8.99977e-18
-9.71796e-18
-1.00209e-17
-8.92532e-18
-9.45982e-18
-9.71964e-18
-1.01988e-17
-1.08149e-17
-9.83037e-18
-9.51265e-18
-9.27486e-18
-9.12073e-18
-1.01802e-17
-9.51532e-18
-9.49507e-18
-9.43402e-18
-1.04297e-17
-9.55789e-18
-9.56403e-18
-9.26163e-18
-9.80946e-18
-9.59375e-18
-9.33105e-18
-9.85985e-18
-1.04173e-17
-9.3058e-18
-1.03234e-17
-9.16518e-18
-9.33767e-18
-1.00147e-17
-9.83396e-18
-9.46273e-18
-1.08933e-17
-9.74475e-18
-9.63863e-18
-1.0454e-17
-8.93168e-18
-9.8678e-18
-9.41261e-18
-9.55891e-18
-9.24927e-18
-9.97233e-18
-9.71512e-18
-9.76855e-18
-9.50906e-18
-9.77656e-18
-9.41135e-18
-1.02421e-17
-9.54886e-18
-1.02734e-17
-9.17987e-18
-1.02231e-17
-9.92033e-18
-9.00768e-18
-9.33598e-18
-1.0068e-17
-1.02239e-17
-8.50165e-18
-9.76935e-18
-9.60739e-18
-1.82919e-17
-1.77121e-17
-1.92017e-17
-1.92392e-17
-1.63535e-17
-1.85453e-17
-1.79641e-17
-1.88763e-17
-1.84824e-17
-1.68023e-17
-1.80159e-17
-1.80144e-17
-2.02801e-17
-1.85641e-17
-1.64878e-17
-1.74803e-17
-1.82338e-17
-1.7839e-17
-1.69267e-17
-1.94912e-17
-1.86363e-17
-1.70836e-17
-1.62842e-17
-1.81639e-17
-1.99509e-17
-1.74732e-17
-1.84932e-17
-1.93549e-17
-1.92948e-17
-1.75222e-17
-1.99626e-17
-1.84234e-17
-1.59192e-17
-1.84618e-17
-1.78003e-17
-1.91926e-17
-1.76742e-17
-1.87879e-17
-1.66853e-17
-1.82183e-17
-1.66459e-17
-1.81114e-17
-1.83511e-17
-1.84074e-17
-1.83204e-17
-1.80842e-17
-1.77967e-17
-1.83568e-17
-1.81601e-17
-1.82529e-17
-1.76682e-17
-1.96366e-17
-1.67605e-17
-1.85042e-17
-1.72961e-17
-1.87154e-17
-1.84317e-17
-1.7616e-17
-1.87269e-17
-1.83669e-17
-1.8356e-17
-1.87645e-17
-1.64927e-17
-1.75813e-17
-1.75102e-17
-1.79093e-17
-1.97967e-17
-1.86119e-17
-1.68566e-17
-1.93476e-17
-1.806e-17
-1.89785e-17
-1.78393e-17
-1.63313e-17
-1.72141e-17
-1.91257e-17
-1.92966e-17
-1.83155e-17
-1.87268e-17
-1.86182e-17
-1.66273e-17
-1.78634e-17
-1.77452e-17
-1.80207e-17
-1.91059e-17
-1.7424e-17
-1.76184e-17
-1.88748e-17
-1.95538e-17
-2.00283e-17
-1.81101e-17
-1.78056e-17
-1.72054e-17
-1.69615e-17
-1.71524e-17
-1.71299e-17
-2.00565e-17
-1.86354e-17
-1.71335e-17
-1.8603e-17
-1.70638e-17
-1.84434e-17
-1.83787e-17
-1.80236e-17
-1.68638e-17
-1.8081e-17
-1.94161e-17
-1.82411e-17
-1.94049e-17
-1.64882e-17
-1.98288e-17
-1.92817e-17
-1.88387e-17
-1.5862e-17
-1.88028e-17
-1.85336e-17
-1.74666e-17
-1.71667e-17
-1.83409e-17
-1.75658e-17
-1.90755e-17
-1.80307e-17
-1.68502e-17
-1.79576e-17
-2.04641e-17
-1.78678e-17
-1.68713e-17
-1.88658e-17
-1.85065e-17
-1.69046e-17
-1.80221e-17
-1.88226e-17
-1.8296e-17
-1.61494e-17
-1.86708e-17
-1.94682e-17
-1.79562e-17
-1.79652e-17
-1.78003e-17
-1.81362e-17
-1.74304e-17
-1.88398e-17
-1.85309e-17
-1.78758e-17
-1.86202e-17
-1.84563e-17
-1.74006e-17
-1.7948e-17
-1.82307e-17
-1.74597e-17
-1.69984e-17
-1.83597e-17
-1.94908e-17
-1.63778e-17
-1.69616e-17
-1.97576e-17
-1.875e-17
-1.88133e-17
-1.70872e-17
-1.6538e-17
-1.82033e-17
-2.00178e-17
-1.75342e-17
-1.73561e-17
-1.834e-17
-1.85835e-17
-1.88603e-17
-1.77526e-17
-1.8496e-17
-1.82968e-17
-1.74658e-17
-1.8617e-17
-1.7375e-17
-1.88225e-17
-1.83472e-17
-1.78296e-17
-1.95132e-17
-1.66798e-17
-1.7986e-17
-1.98451e-17
-1.76689e-17
-1.97075e-17
-1.6825e-17
-1.83268e-17
-1.73988e-17
-1.68034e-17
-1.83923e-17
-1.81693e-17
-1.85785e-17
-1.78821e-17
-1.8032e-17
-1.92252e-17
-1.91304e-17
-1.67487e-17
-1.85453e-17
-1.78555e-17
-1.72844e-17
-1.75322e-17
-1.92259e-17
-1.80518e-17
-1.73935e-17
-1.80029e-17
-1.85233e-17
-1.98272e-17
-1.78098e-17
-1.91576e-17
-1.81564e-17
-1.6137e-17
-1.67271e-17
-2.02443e-17
-1.86033e-17
-1.74243e-17
-1.83516e-17
-1.80961e-17
-1.83446e-17
-1.90766e-17
-1.75561e-17
-1.66639e-17
-1.89931e-17
-1.65207e-17
-1.95186e-17
-1.78192e-17
-1.92297e-17
-1.76909e-17
-1.84626e-17
-1.83925e-17
-1.77302e-17
-1.7073e-17
-1.81598e-17
-1.92946e-17
-1.79369e-17
-1.96894e-17
-1.70639e-17
-1.83411e-17
-1.72137e-17
-1.88563e-17
-1.95478e-17
-1.63988e-17
-1.88807e-17
-1.69316e-17
-1.85247e-17
-1.81916e-17
-1.76119e-17
-1.74792e-17
-1.85301e-17
-1.78763e-17
-1.86045e-17
-1.856e-17
-1.88935e-17
-1.8046e-17
-1.73383e-17
-1.7371e-17
-1.79872e-17
-1.89162e-17
-1.75965e-17
-1.80876e-17
-3.10645e-17
-3.2786e-17
-3.60833e-17
-3.7621e-17
-3.21797e-17
-3.21726e-17
-3.44025e-17
-3.32067e-17
-3.47139e-17
-3.2974e-17
-3.50209e-17
-3.29324e-17
-3.35165e-17
-3.27554e-17
-3.19719e-17
-3.65798e-17
-3.46482e-17
-3.25591e-17
-3.33781e-17
-3.36087e-17
-3.49347e-17
-3.39053e-17
-3.17764e-17
-3.18517e-17
-3.7937e-17
-3.47803e-17
-3.54575e-17
-3.2266e-17
-3.36852e-17
-3.50131e-17
-3.48352e-17
-3.56453e-17
-2.93273e-17
-3.4396e-17
-3.31396e-17
-3.42491e-17
-3.31057e-17
-3.70888e-17
-3.26928e-17
-3.27913e-17
-3.48791e-17
-3.4435e-17
-3.28077e-17
-3.58481e-17
-3.44486e-17
-3.23922e-17
-3.21134e-17
-3.35537e-17
-3.49351e-17
-3.53103e-17
-3.46861e-17
-3.13058e-17
-3.13774e-17
-3.52712e-17
-3.37902e-17
-3.36876e-17
-3.29486e-17
-3.25468e-17
-3.10089e-17
-3.73771e-17
-3.91808e-17
-3.44875e-17
-3.09528e-17
-3.24746e-17
-3.3139e-17
-3.39275e-17
-3.46615e-17
-3.53806e-17
-3.26405e-17
-3.30879e-17
-3.15044e-17
-3.63653e-17
-3.41348e-17
-3.6381e-17
-3.46881e-17
-3.37965e-17
-3.36793e-17
-3.33652e-17
-3.47202e-17
-3.58796e-17
-3.25556e-17
-3.30016e-17
-3.25468e-17
-3.53093e-17
-3.52051e-17
-3.43665e-17
-3.20584e-17
-3.2247e-17
-3.49816e-17
-3.4617e-17
-3.45175e-17
-3.36515e-17
-3.39613e-17
-3.32634e-17
-3.38888e-17
-3.1794e-17
-3.72999e-17
-3.33895e-17
-3.55699e-17
-3.47241e-17
-3.07834e-17
-3.24706e-17
-3.37888e-17
-3.07568e-17
-3.52036e-17
-3.65568e-17
-3.43077e-17
-3.56058e-17
-3.54556e-17
-2.93142e-17
-3.68849e-17
-3.28604e-17
-3.02525e-17
-3.48661e-17
-3.18427e-17
-3.56698e-17
-3.31194e-17
-3.75274e-17
-3.15313e-17
-3.41671e-17
-3.54847e-17
-3.32773e-17
-3.21448e-17
-3.35979e-17
-3.48904e-17
-3.33822e-17
-3.33262e-17
-3.70265e-17
-3.35938e-17
-3.50908e-17
-3.36367e-17
-3.34126e-17
-3.3626e-17
-3.16143e-17
-3.31758e-17
-3.19699e-17
-3.49083e-17
-3.33003e-17
-3.32728e-17
-3.4473e-17
-3.3623e-17
-3.46182e-17
-3.05307e-17
-3.4535e-17
-3.87692e-17
-3.31603e-17
-3.29647e-17
-3.26479e-17
-3.40281e-17
-3.5115e-17
-3.36763e-17
-3.57794e-17
-3.31475e-17
-3.33527e-17
-3.32284e-17
-3.49268e-17
-3.38809e-17
-3.42525e-17
-3.57974e-17
-3.1113e-17
-3.23174e-17
-3.51559e-17
-3.57989e-17
-3.13407e-17
-3.36238e-17
-3.41763e-17
-3.11369e-17
-3.23842e-17
-3.58239e-17
-3.77637e-17
-3.26619e-17
-3.11026e-17
-3.35921e-17
-3.75564e-17
-3.4768e-17
-3.6104e-17
-3.48263e-17
-3.14611e-17
-3.14044e-17
-3.51719e-17
-3.59314e-17
-3.35392e-17
-3.18816e-17
-3.47164e-17
-3.44793e-17
-3.35912e-17
-3.30398e-17
-3.4214e-17
-3.29769e-17
-3.43254e-17
-3.38445e-17
-3.37163e-17
-3.5389e-17
-3.26135e-17
-3.41034e-17
-3.54121e-17
-3.40027e-17
-3.28793e-17
-3.34255e-17
-3.44223e-17
-3.21369e-17
-3.3357e-17
-3.56794e-17
-3.52543e-17
-3.48643e-17
-3.20127e-17
-3.4772e-17
-3.44482e-17
-3.1508e-17
-3.33531e-17
-3.12038e-17
-3.35239e-17
-3.53841e-17
-3.51316e-17
-3.5002e-17
-3.48624e-17
-3.3677e-17
-3.63032e-17
-3.53498e-17
-3.08318e-17
-3.25653e-17
-3.48931e-17
-3.32502e-17
-3.42423e-17
-3.45506e-17
-3.46061e-17
-3.22921e-17
-3.48753e-17
-3.2434e-17
-3.46285e-17
-3.25449e-17
-3.5713e-17
-3.37471e-17
-3.41964e-17
-3.25391e-17
-3.13532e-17
-3.36157e-17
-3.09535e-17
-3.50891e-17
-3.58358e-17
-3.32541e-17
-3.49194e-17
-3.46744e-17
-3.4303e-17
-3.64015e-17
-3.43413e-17
-3.17973e-17
-3.1976e-17
-3.26308e-17
-3.28704e-17
-3.60648e-17
-3.73114e-17
-3.34654e-17
-3.18324e-17
-3.40256e-17
-3.77598e-17
-6.48167e-17
-5.90694e-17
-5.77134e-17
-5.9351e-17
-7.08106e-17
-6.35556e-17
-6.41796e-17
-6.17714e-17
-5.98253e-17
-6.4051e-17
-6.33163e-17
-6.06495e-17
-6.38051e-17
-6.22917e-17
-6.45312e-17
-6.64193e-17
-6.35477e-17
-6.16312e-17
-6.09029e-17
-6.13322e-17
-6.6717e-17
-7.01578e-17
-6.28295e-17
-6.18146e-17
-6.52333e-17
-6.28839e-17
-6.32127e-17
-6.23455e-17
-6.33689e-17
-6.62666e-17
-6.15338e-17
-5.79171e-17
-6.21727e-17
-6.14563e-17
-5.81711e-17
-6.71961e-17
-6.29176e-17
-7.18014e-17
-6.20523e-17
-6.08763e-17
-6.28479e-17
-6.34488e-17
-6.66079e-17
-6.78475e-17
-6.47488e-17
-5.38451e-17
-6.48406e-17
-6.22443e-17
-6.32428e-17
-6.38765e-17
-6.87359e-17
-6.15129e-17
-6.65498e-17
-5.83387e-17
-5.55162e-17
-6.114e-17
-7.25534e-17
-6.53211e-17
-6.1575e-17
-6.29694e-17
-6.39241e-17
-6.05798e-17
-6.65342e-17
-6.87478e-17
-6.01417e-17
-6.07308e-17
-6.255e-17
-6.30885e-17
-6.11148e-17
-6.33213e-17
-5.88001e-17
-6.48765e-17
-6.7975e-17
-6.20518e-17
-6.08981e-17
-6.53603e-17
-7.33988e-17
-6.03562e-17
-6.34784e-17
-6.41264e-17
-5.44599e-17
-6.10378e-17
-6.78596e-17
-6.59355e-17
-6.08127e-17
-6.11153e-17
-6.7535e-17
-5.92673e-17
-6.23541e-17
-6.15051e-17
-6.29148e-17
-6.20866e-17
-6.61943e-17
-6.36991e-17
-6.21754e-17
-6.77191e-17
-6.50359e-17
-6.66668e-17
-6.05018e-17
-6.13497e-17
-6.40861e-17
-6.26843e-17
-6.27715e-17
-6.24814e-17
-6.41754e-17
-6.15058e-17
-6.25552e-17
-6.60166e-17
-6.2679e-17
-5.87941e-17
-6.24505e-17
-6.77792e-17
-6.512e-17
-5.95143e-17
-6.10697e-17
-5.86508e-17
-6.7203e-17
-6.94682e-17
-6.54415e-17
-5.59197e-17
-6.40747e-17
-6.50143e-17
-6.26774e-17
-6.45483e-17
-6.70775e-17
-6.6474e-17
-6.07542e-17
-6.48124e-17
-6.52492e-17
-6.24832e-17
-5.66787e-17
-6.0897e-17
-6.39747e-17
-7.22909e-17
-6.00318e-17
-6.00552e-17
-6.25071e-17
-6.14998e-17
-6.28777e-17
-6.69512e-17
-5.93741e-17
-6.6004e-17
-6.33894e-17
-6.11271e-17
-6.59875e-17
-6.28407e-17
-6.53182e-17
-6.04242e-17
-6.10216e-17
-5.76547e-17
-6.03152e-17
-7.24566e-17
-6.99826e-17
-6.28148e-17
-6.43795e-17
-6.54769e-17
-6.57363e-17
-5.94314e-17
-5.94552e-17
-5.86566e-17
-7.222e-17
-6.41849e-17
-5.90529e-17
-6.16412e-17
-6.4367e-17
-6.12312e-17
-6.1719e-17
-6.53456e-17
-6.30721e-17
-6.2353e-17
-5.8814e-17
-6.68594e-17
-6.31602e-17
-6.6301e-17
-6.29834e-17
-6.27369e-17
-6.49129e-17
-6.43512e-17
-6.59983e-17
-5.96282e-17
-6.17073e-17
-6.18713e-17
-6.44705e-17
-5.79504e-17
-6.88466e-17
-6.63978e-17
-6.47267e-17
-6.27792e-17
-6.31148e-17
-5.94393e-17
-7.02554e-17
-5.77481e-17
-5.61733e-17
-6.55388e-17
-6.50325e-17
-7.00192e-17
-6.78234e-17
-5.94471e-17
-5.65758e-17
-6.35875e-17
-6.4465e-17
-6.02043e-17
-6.05365e-17
-7.0808e-17
-6.04081e-17
-6.1824e-17
-6.53128e-17
-7.17312e-17
-5.59759e-17
-6.00756e-17
-6.07637e-17
-6.11105e-17
-6.73621e-17
-6.23081e-17
-6.44237e-17
-6.25394e-17
-6.51349e-17
-6.86791e-17
-6.55835e-17
-5.91487e-17
-6.06077e-17
-6.36668e-17
-7.00112e-17
-6.1766e-17
-6.04556e-17
-6.02457e-17
-6.71884e-17
-6.8172e-17
-5.57599e-17
-5.94059e-17
-6.58749e-17
-6.58781e-17
-6.44765e-17
-6.47609e-17
-6.31791e-17
-5.68028e-17
-6.58369e-17
-6.77157e-17
-6.57485e-17
-6.23494e-17
-5.90195e-17
-6.12735e-17
-6.54914e-17
-6.62388e-17
-6.25584e-17
-5.95608e-17
-6.60454e-17
-6.02045e-17
-5.83586e-17
-6.15691e-17
-6.40133e-17
-6.79166e-17
-6.16841e-17
-6.37513e-17
-6.33849e-17
-7.1835e-17
-1.21318e-16
-1.15743e-16
-1.24034e-16
-1.1533e-16
-1.21578e-16
-1.21502e-16
-1.1934e-16
-1.129e-16
-1.08432e-16
-1.14742e-16
-1.32714e-16
-1.22016e-16
-1.07258e-16
-1.20425e-16
-1.22646e-16
-1.21311e-16
-1.19002e-16
-1.13959e-16
-1.13676e-16
-1.14511e-16
-1.23338e-16
-1.14399e-16
-1.23851e-16
-1.21456e-16
-1.09017e-16
-1.27147e-16
-1.23507e-16
-1.21904e-16
-1.14861e-16
-1.0162e-16
-1.12283e-16
-1.19404e-16
-1.31417e-16
-1.16792e-16
-1.13058e-16
-1.23267e-16
-1.14413e-16
-1.23858e-16
-1.21136e-16
-1.12711e-16
-1.13119e-16
-1.16981e-16
-1.20071e-16
-1.13384e-16
-1.30923e-16
-1.19431e-16
-1.11179e-16
-1.18679e-16
-1.15192e-16
-1.25192e-16
-1.24061e-16
-1.20154e-16
-1.13254e-16
-1.13722e-16
-1.13716e-16
-1.2257e-16
-1.17568e-16
-1.20236e-16
-1.28583e-16
-1.20432e-16
-1.12083e-16
-1.12041e-16
-1.18549e-16
-1.14761e-16
-1.24824e-16
-1.10059e-16
-1.14449e-16
-1.24328e-16
-1.13706e-16
-1.16708e-16
-1.21268e-16
-1.17008e-16
-1.15381e-16
-1.25787e-16
-1.09865e-16
-1.21909e-16
-1.20945e-16
-1.26005e-16
-1.17716e-16
-1.1427e-16
-1.09244e-16
-1.31942e-16
-1.207e-16
-1.21409e-16
-1.14346e-16
-1.20623e-16
-1.2448e-16
-1.15687e-16
-1.05377e-16
-1.14995e-16
-1.15145e-16
-1.19948e-16
-1.24111e-16
-1.16134e-16
-1.16469e-16
-1.27227e-16
-1.17032e-16
-1.17699e-16
-1.19869e-16
-1.04688e-16
-1.23945e-16
-1.10646e-16
-1.13956e-16
-1.18712e-16
-1.19634e-16
-1.21952e-16
-1.25366e-16
-1.22377e-16
-1.21146e-16
-1.2163e-16
-1.10092e-16
-1.16723e-16
-1.14829e-16
-1.19527e-16
-1.21833e-16
-1.21011e-16
-1.18969e-16
-1.26362e-16
-1.17273e-16
-1.03787e-16
-1.18965e-16
-1.24826e-16
-1.06111e-16
-1.21251e-16
-1.26497e-16
-1.11019e-16
-1.27998e-16
-1.20528e-16
-1.22917e-16
-1.23324e-16
-1.1387e-16
-1.19671e-16
-1.12262e-16
-1.13709e-16
-1.17721e-16
-1.1357e-16
-1.10651e-16
-1.23468e-16
-1.1811e-16
-1.30979e-16
-1.12428e-16
-1.14302e-16
-1.20573e-16
-1.04519e-16
-1.31236e-16
-1.225e-16
-1.20281e-16
-1.11384e-16
-1.28649e-16
-1.23558e-16
-1.10724e-16
-1.12047e-16
-1.13325e-16
-1.19439e-16
-1.09816e-16
-1.24601e-16
-1.17541e-16
-1.16294e-16
-1.22771e-16
-1.17804e-16
-1.24946e-16
-1.19434e-16
-1.12006e-16
-1.23431e-16
-1.16727e-16
-1.15476e-16
-1.1527e-16
-1.29592e-16
-1.1612e-16
-1.18943e-16
-1.10518e-16
-1.22272e-16
-1.25167e-16
-1.13175e-16
-1.16756e-16
-1.20004e-16
-1.0705e-16
-1.24244e-16
-1.23174e-16
-1.22778e-16
-1.18302e-16
-1.19267e-16
-1.0954e-16
-1.15849e-16
-1.29162e-16
-1.08118e-16
-1.175e-16
-1.12831e-16
-1.26533e-16
-1.24144e-16
-1.28492e-16
-1.09978e-16
-1.2069e-16
-1.22378e-16
-1.18251e-16
-1.15287e-16
-1.10805e-16
-1.06091e-16
-1.18758e-16
-1.2304e-16
-1.18237e-16
-1.16034e-16
-1.15965e-16
-1.24093e-16
-1.17771e-16
-1.20362e-16
-1.17795e-16
-1.17783e-16
-1.11733e-16
-1.18491e-16
-1.30289e-16
-1.19083e-16
-1.20672e-16
-9.77861e-17
-1.2265e-16
-1.17049e-16
-1.22956e-16
-1.22851e-16
-1.32657e-16
-1.21005e-16
-1.14396e-16
-1.24417e-16
-1.0351e-16
-1.08977e-16
-1.30091e-16
-1.26696e-16
-1.16218e-16
-1.07713e-16
-1.16276e-16
-1.15744e-16
-1.14604e-16
-1.33784e-16
-1.24563e-16
-1.14528e-16
-1.18699e-16
-1.11486e-16
-1.18008e-16
-1.19749e-16
-1.13895e-16
-1.1279e-16
-1.08566e-16
-1.24664e-16
-1.19199e-16
-1.28797e-16
-1.17739e-16
-1.13131e-16
-1.1977e-16
-1.20281e-16
-1.09645e-16
-1.21519e-16
-1.22416e-16
-1.19038e-16
-1.22714e-16
-1.22245e-16
-1.17945e-16
-1.0963e-16
-2.48762e-16
-2.23681e-16
-2.27231e-16
-2.18213e-16
-2.06933e-16
-2.29869e-16
-2.35743e-16
-1.96045e-16
-2.10948e-16
-2.20535e-16
-2.33063e-16
-2.30905e-16
-1.87578e-16
-2.30578e-16
-2.38964e-16
-2.13051e-16
-2.46483e-16
-2.21728e-16
-2.23398e-16
-1.9531e-16
-2.20206e-16
-2.24705e-16
-2.32587e-16
-2.10228e-16
-2.11376e-16
-2.32012e-16
-2.198e-16
-2.24095e-16
-2.1848e-16
-2.03354e-16
-2.15919e-16
-2.23894e-16
-2.37156e-16
-2.0403e-16
-2.15321e-16
-2.40711e-16
-2.22478e-16
-2.16895e-16
-2.17332e-16
-2.1041e-16
-2.43253e-16
-2.1603e-16
-2.2076e-16
-2.08682e-16
-2.36278e-16
-2.2689e-16
-2.10061e-16
-2.34749e-16
-2.12647e-16
-2.18054e-16
-2.16231e-16
-2.28598e-16
-2.05039e-16
-2.30151e-16
-2.18673e-16
-2.33461e-16
-2.37315e-16
-2.28703e-16
-2.2383e-16
-2.10251e-16
-2.19565e-16
-2.16416e-16
-2.17372e-16
-2.16285e-16
-2.32408e-16
-1.85637e-16
-2.3088e-16
-2.0722e-16
-2.29395e-16
-2.13728e-16
-2.3262e-16
-2.2393e-16
-2.12327e-16
-2.17343e-16
-2.21655e-16
-2.39982e-16
-2.23271e-16
-2.16385e-16
-2.1109e-16
-2.4014e-16
-2.25525e-16
-2.1637e-16
-2.15767e-16
-2.25121e-16
-2.09296e-16
-2.13022e-16
-2.1873e-16
-2.38333e-16
-2.27753e-16
-1.98175e-16
-2.07725e-16
-2.17275e-16
-2.15089e-16
-2.1254e-16
-2.33903e-16
-2.26769e-16
-2.18579e-16
-2.33672e-16
-2.34607e-16
-2.15854e-16
-2.41207e-16
-2.1482e-16
-2.05808e-16
-2.18424e-16
-2.09116e-16
-2.17085e-16
-2.18832e-16
-2.14737e-16
-2.33956e-16
-2.1589e-16
-2.17913e-16
-2.33197e-16
-2.10072e-16
-2.26526e-16
-2.32166e-16
-2.24615e-16
-2.28315e-16
-2.02065e-16
-2.1105e-16
-2.36963e-16
-2.23905e-16
-2.15106e-16
-2.08676e-16
-2.18866e-16
-2.46623e-16
-2.07448e-16
-2.24114e-16
-2.40865e-16
-2.17414e-16
-2.20677e-16
-2.14449e-16
-2.25122e-16
-2.18081e-16
-2.33224e-16
-2.2114e-16
-2.03012e-16
-2.20876e-16
-2.27301e-16
-2.33454e-16
-2.29812e-16
-2.16784e-16
-1.88832e-16
-2.27394e-16
-2.40687e-16
-2.19927e-16
-2.24641e-16
-2.08228e-16
-2.09036e-16
-2.43885e-16
-2.21069e-16
-2.09839e-16
-2.17288e-16
-2.20732e-16
-2.0774e-16
-2.20527e-16
-2.36205e-16
-2.05616e-16
-2.16587e-16
-2.09652e-16
-2.21673e-16
-2.24676e-16
-2.25662e-16
-2.31118e-16
-2.26827e-16
-2.18918e-16
-2.1768e-16
-2.18118e-16
-2.26932e-16
-2.16509e-16
-2.26647e-16
-2.14558e-16
-2.2831e-16
-2.10606e-16
-2.13115e-16
-2.3346e-16
-2.37019e-16
-2.04041e-16
-2.1657e-16
-2.37826e-16
-2.04917e-16
-2.11261e-16
-2.37164e-16
-2.20209e-16
-2.2917e-16
-2.37026e-16
-2.04915e-16
-2.10775e-16
-2.1994e-16
-2.26796e-16
-2.31817e-16
-2.32663e-16
-2.03491e-16
-2.2569e-16
-2.09584e-16
-2.13032e-16
-2.1477e-16
-2.15502e-16
-2.44839e-16
-2.19525e-16
-2.08263e-16
-2.12637e-16
-2.18378e-16
-2.2029e-16
-2.29753e-16
-2.05706e-16
-2.41936e-16
-2.19619e-16
-2.2101e-16
-2.17162e-16
-2.29903e-16
-2.40014e-16
-2.04253e-16
-2.32444e-16
-2.157e-16
-1.99579e-16
-2.18629e-16
-2.11978e-16
-2.42424e-16
-2.33292e-16
-2.20691e-16
-2.1712e-16
-2.11046e-16
-2.14809e-16
-2.42881e-16
-2.22012e-16
-2.12726e-16
-2.05575e-16
-2.21222e-16
-2.3207e-16
-2.14577e-16
-2.25798e-16
-2.36189e-16
-2.24041e-16
-2.02543e-16
-2.22559e-16
-2.32297e-16
-2.13858e-16
-2.13637e-16
-2.06779e-16
-2.33251e-16
-2.11318e-16
-2.30783e-16
-2.07955e-16
-2.04213e-16
-2.27853e-16
-2.24807e-16
-2.21472e-16
-2.1987e-16
-2.19415e-16
-2.39376e-16
-2.35031e-16
-1.86029e-16
-2.24608e-16
-2.20272e-16
-2.1747e-16
-2.19916e-16
-4.23793e-16
-3.78533e-16
-4.15743e-16
-4.00553e-16
-4.35925e-16
-4.29968e-16
-3.99785e-16
-3.92561e-16