# vtk DataFile Version 1.0
Ion Density - Current Sheet
ASCII
DATASET STRUCTURED_POINTS
DIMENSIONS 256 128 1
ORIGIN 0 0 0
SPACING 0.15625 0.15625 1
POINT_DATA 32768
SCALARS rhoi float
LOOKUP_TABLE default
1.94344e-18
1.86763e-18
1.86563e-18
1.96823e-18
2.17281e-18
1.96408e-18
1.96046e-18
1.78765e-18
1.94474e-18
1.83314e-18
1.9867e-18
2.05153e-18
1.93777e-18
1.7789e-18
1.84327e-18
2.07268e-18
1.93958e-18
1.97721e-18
1.97095e-18
1.87299e-18
1.9713e-18
2.10986e-18
1.99789e-18
1.96289e-18
1.97269e-18
1.898e-18
1.84092e-18
1.88338e-18
1.94138e-18
1.94159e-18
1.97725e-18
2.01979e-18
1.95941e-18
1.99805e-18
1.87476e-18
1.70997e-18
1.93452e-18
1.94682e-18
2.10596e-18
1.88329e-18
1.78917e-18
1.91714e-18
2.12182e-18
1.85496e-18
1.73943e-18
1.82948e-18
1.9144e-18
1.93904e-18
1.83855e-18
1.99484e-18
1.90606e-18
2.00439e-18
1.7377e-18
1.88395e-18
1.86422e-18
1.94821e-18
1.98479e-18
1.87795e-18
1.84473e-18
1.89853e-18
1.90334e-18
2.08098e-18
2.10364e-18
1.98041e-18
1.86176e-18
1.82341e-18
1.80362e-18
1.79971e-18
1.72135e-18
1.7537e-18
1.94233e-18
1.97306e-18
1.69873e-18
1.81184e-18
1.81197e-18
1.78689e-18
1.86299e-18
1.95199e-18
1.84689e-18
1.99835e-18
1.7899e-18
1.91126e-18
1.86652e-18
1.74539e-18
2.04356e-18
1.92555e-18
1.72961e-18
1.99973e-18
1.87858e-18
1.92816e-18
1.74948e-18
1.68359e-18
1.73677e-18
2.1111e-18
2.11887e-18
2.05907e-18
1.99753e-18
1.82405e-18
1.83896e-18
1.98328e-18
1.71692e-18
1.84246e-18
1.70515e-18
1.79312e-18
1.91171e-18
1.84372e-18
1.77544e-18
1.86212e-18
1.89921e-18
1.70433e-18
1.84266e-18
1.85393e-18
2.04887e-18
1.88469e-18
2.1037e-18
1.86406e-18
1.8364e-18
1.79451e-18
1.82533e-18
1.73829e-18
1.84464e-18
1.96506e-18
1.76114e-18
1.87744e-18
2.04901e-18
1.84598e-18
2.00099e-18
1.91497e-18
1.87073e-18
1.80222e-18
1.83851e-18
1.63204e-18
2.23977e-18
1.92727e-18
1.74462e-18
2.03866e-18
1.88461e-18
1.90151e-18
2.02334e-18
2.11186e-18
1.82247e-18
1.8623e-18
1.79029e-18
1.85402e-18
2.12745e-18
1.81966e-18
1.73294e-18
2.10879e-18
1.75691e-18
1.96954e-18
1.92728e-18
1.83653e-18
1.84638e-18
1.79031e-18
1.93552e-18
2.03005e-18
2.07795e-18
1.81598e-18
1.82642e-18
2.0955e-18
1.87497e-18
1.98961e-18
1.89027e-18
1.6351e-18
2.08182e-18
1.96838e-18
1.82672e-18
2.13275e-18
1.95111e-18
1.94577e-18
1.82758e-18
1.83345e-18
1.9611e-18
1.82214e-18
1.91469e-18
1.96338e-18
1.87544e-18
1.77321e-18
1.85291e-18
1.96916e-18
1.82274e-18
2.02008e-18
2.17825e-18
1.75578e-18
1.81668e-18
1.78699e-18
2.01905e-18
1.85944e-18
2.07547e-18
1.87021e-18
1.92788e-18
1.85635e-18
1.73015e-18
2.01851e-18
1.99197e-18
1.92613e-18
1.8063e-18
1.81343e-18
1.93477e-18
2.00006e-18
1.95658e-18
1.93161e-18
1.89679e-18
1.94802e-18
1.89216e-18
1.9834e-18
1.85171e-18
1.75463e-18
1.76089e-18
1.84715e-18
1.88819e-18
1.96868e-18
1.95347e-18
1.84869e-18
1.85925e-18
1.82318e-18
1.97492e-18
2.22348e-18
1.94926e-18
2.07214e-18
1.92532e-18
1.81922e-18
1.6545e-18
1.69007e-18
1.81889e-18
1.96488e-18
1.9297e-18
1.81063e-18
1.79522e-18
1.90425e-18
1.79162e-18
1.85824e-18
1.95407e-18
2.13751e-18
1.68736e-18
2.02704e-18
1.80074e-18
1.95068e-18
1.83779e-18
1.94996e-18
1.72888e-18
1.87462e-18
1.78124e-18
1.99418e-18
2.01855e-18
2.10389e-18
1.96306e-18
1.96392e-18
2.35023e-18
1.74933e-18
1.94804e-18
1.71512e-18
1.92383e-18
1.85846e-18
1.77641e-18
1.74984e-18
2.49528e-18
2.72811e-18
2.70889e-18
2.42156e-18
2.62847e-18
2.96934e-18
2.84397e-18
2.69051e-18
2.87097e-18
2.99304e-18
2.91158e-18
2.94769e-18
2.91136e-18
2.6374e-18
2.6156e-18
2.60298e-18
2.71034e-18
2.98244e-18
2.85815e-18
2.80445e-18
2.75981e-18
2.67514e-18
2.51508e-18
2.94888e-18
2.70315e-18
3.0042e-18
2.90341e-18
2.80388e-18
2.77228e-18
2.86041e-18
2.95838e-18
2.58005e-18
2.68274e-18
2.85319e-18
2.96236e-18
2.72287e-18
2.81142e-18
2.81283e-18
2.99128e-18
2.67233e-18
2.80041e-18
2.93394e-18
2.84753e-18
2.9757e-18
2.88801e-18
2.70492e-18
3.06603e-18
2.85414e-18
2.64319e-18
2.78278e-18
2.76075e-18
2.9081e-18
2.68688e-18
2.7617e-18
2.56173e-18
2.81253e-18
2.67729e-18
2.90669e-18
2.80922e-18
2.77517e-18
2.74683e-18
2.87882e-18
2.81003e-18
2.73807e-18
2.85539e-18
2.83775e-18
2.76168e-18
2.58525e-18
2.56502e-18
2.84524e-18
3.00303e-18
2.97323e-18
2.6476e-18
2.94831e-18
2.88943e-18
2.77257e-18
2.70662e-18
2.59231e-18
2.52666e-18
2.84039e-18
3.03644e-18
2.94568e-18
2.91208e-18
2.79371e-18
2.72862e-18
2.90813e-18
2.92487e-18
2.88471e-18
2.68671e-18
2.5571e-18
2.80647e-18
2.71609e-18
2.66779e-18
2.54363e-18
2.57087e-18
2.8363e-18
2.79811e-18
2.80844e-18
2.71235e-18
2.97191e-18
2.86453e-18
2.83494e-18
2.87852e-18
2.64147e-18
2.86171e-18
2.6964e-18
2.81272e-18
2.76545e-18
3.03522e-18
2.83805e-18
3.04504e-18
2.54582e-18
2.99301e-18
2.68298e-18
2.53873e-18
2.7893e-18
2.71352e-18
2.70986e-18
2.86447e-18
3.06032e-18
2.70801e-18
2.73914e-18
2.95062e-18
2.60845e-18
2.76174e-18
3.03567e-18
3.05392e-18
2.62054e-18
2.65338e-18
2.80288e-18
2.87464e-18
2.56428e-18
2.86686e-18
2.72514e-18
2.61996e-18
2.9853e-18
2.856e-18
2.84188e-18
2.73496e-18
2.79111e-18
2.61504e-18
2.71029e-18
2.85412e-18
2.81685e-18
3.01539e-18
2.7664e-18
2.44081e-18
2.78648e-18
2.72372e-18
2.674e-18
2.67007e-18
2.67514e-18
2.98716e-18
3.05867e-18
2.96962e-18
2.95289e-18
2.79732e-18
2.82324e-18
2.76006e-18
2.82561e-18
2.73184e-18
2.83646e-18
2.80793e-18
2.5839e-18
2.86017e-18
2.90517e-18
2.7662e-18
2.73321e-18
2.57489e-18
2.56245e-18
2.84544e-18
2.64394e-18
2.85517e-18
2.70197e-18
2.81525e-18
2.96565e-18
2.62579e-18
2.83468e-18
2.7573e-18
2.80742e-18
2.79146e-18
2.88564e-18
2.70398e-18
2.91802e-18
2.81056e-18
2.73288e-18
2.74224e-18
2.70101e-18
2.79058e-18
2.96728e-18
3.14567e-18
2.75079e-18
2.84736e-18
2.73987e-18
2.64885e-18
2.94295e-18
2.88338e-18
2.87045e-18
2.82135e-18
2.97566e-18
2.71683e-18
3.02215e-18
2.69928e-18
2.86949e-18
2.72607e-18
3.0052e-18
2.81929e-18
2.77983e-18
2.95668e-18
2.73457e-18
2.70193e-18
3.04075e-18
2.51658e-18
2.77456e-18
2.77304e-18
2.75414e-18
2.76588e-18
2.75984e-18
2.66743e-18
2.87882e-18
2.62018e-18
2.62014e-18
2.77936e-18
2.71747e-18
2.60443e-18
2.63303e-18
2.78058e-18
2.77098e-18
2.76828e-18
3.01085e-18
2.51349e-18
2.73867e-18
2.57023e-18
2.99468e-18
2.76125e-18
2.61088e-18
2.68551e-18
2.92284e-18
2.97184e-18
2.83885e-18
2.86846e-18
2.88124e-18
2.91018e-18
2.81095e-18
2.45513e-18
2.80185e-18
2.56838e-18
2.63746e-18
3.00015e-18
2.79369e-18
2.86201e-18
3.01775e-18
2.84548e-18
2.76708e-18
2.66461e-18
2.66019e-18
5.56632e-18
4.71973e-18
5.31707e-18
5.0603e-18
5.10353e-18
5.15398e-18
4.83361e-18
5.22806e-18
5.21566e-18
4.76933e-18
4.81978e-18
5.49473e-18
5.35555e-18
5.00264e-18
4.89439e-18
5.30977e-18
5.27144e-18
4.76934e-18
5.37232e-18
4.79305e-18
5.24401e-18
5.33029e-18
5.1164e-18
5.293e-18
5.04513e-18
4.90056e-18
5.13404e-18
5.00422e-18
5.29592e-18
4.9396e-18
5.01715e-18
5.00646e-18
5.29553e-18
4.84549e-18
5.09802e-18
5.46256e-18
5.15243e-18
5.10734e-18
5.25618e-18
4.97109e-18
5.23825e-18
5.16536e-18
5.29798e-18
5.11089e-18
4.88578e-18
5.17209e-18
5.43853e-18
5.20382e-18
5.01373e-18
5.14448e-18
4.94793e-18
4.90522e-18
5.45977e-18
5.2117e-18
5.15143e-18
5.05506e-18
5.07596e-18
5.62438e-18
5.22445e-18
5.07814e-18
5.0806e-18
5.36762e-18
5.32593e-18
5.21735e-18
4.72269e-18
5.49862e-18
5.25496e-18
5.68951e-18
5.50021e-18
5.3104e-18
5.13091e-18
5.37855e-18
5.43329e-18
5.37499e-18
5.39207e-18
5.1487e-18
5.028e-18
5.49894e-18
5.31132e-18
5.38717e-18
5.12786e-18
4.93437e-18
5.21997e-18
5.50876e-18
4.94903e-18
5.50696e-18
5.42724e-18
5.27861e-18
5.03329e-18
5.09632e-18
5.54991e-18
5.56472e-18
5.08016e-18
5.24577e-18
5.27569e-18
5.42852e-18
5.50268e-18
4.83671e-18
5.31973e-18
4.93774e-18
4.81059e-18
5.04783e-18
5.23238e-18
5.57134e-18
5.43057e-18
5.12122e-18
5.40091e-18
5.05836e-18
5.32084e-18
5.28557e-18
5.20705e-18
5.28587e-18
5.19678e-18
5.32201e-18
5.30189e-18
5.42125e-18
5.61671e-18
5.38558e-18
4.89322e-18
5.20964e-18
5.35021e-18
5.09592e-18
5.17476e-18
4.95145e-18
4.94712e-18
5.03643e-18
5.60213e-18
5.12625e-18
4.80143e-18
5.09505e-18
4.96529e-18
5.31407e-18
5.32846e-18
5.33448e-18
5.58999e-18
5.02281e-18
4.68584e-18
5.46352e-18
5.37656e-18
5.1133e-18
5.34107e-18
4.88149e-18
5.33954e-18
4.88659e-18
4.58516e-18
5.24418e-18
5.0883e-18
5.66136e-18
4.96873e-18
4.87839e-18
5.85089e-18
5.00726e-18
4.89489e-18
4.90897e-18
4.79814e-18
5.08835e-18
5.57169e-18
5.46491e-18
5.42393e-18
5.45373e-18
5.1242e-18
5.34772e-18
5.10806e-18
5.26495e-18
4.99416e-18
5.00077e-18
5.11728e-18
5.32609e-18
5.24219e-18
5.3784e-18
5.48808e-18
5.26674e-18
5.36136e-18
5.39623e-18
5.0247e-18
5.3269e-18
5.3749e-18
5.33127e-18
5.36833e-18
4.95129e-18
4.93229e-18
5.23626e-18
5.1941e-18
5.41433e-18
5.7873e-18
5.49893e-18
4.9914e-18
5.20168e-18
5.32444e-18
4.9086e-18
5.15898e-18
4.71587e-18
5.12302e-18
5.21656e-18
5.45895e-18
5.09829e-18
5.5467e-18
5.04599e-18
4.38117e-18
5.11544e-18
5.29059e-18
5.10416e-18
5.46312e-18
5.52182e-18
5.76664e-18
5.02111e-18
5.42816e-18
5.4464e-18
5.36776e-18
5.06103e-18
4.9924e-18
5.01953e-18
5.28597e-18
5.26485e-18
5.45926e-18
5.21677e-18
5.09536e-18
5.25681e-18
5.09621e-18
5.12805e-18
5.12763e-18
5.5719e-18
5.47481e-18
5.36991e-18
4.85783e-18
5.15484e-18
5.27243e-18
5.25941e-18
5.05209e-18
5.20974e-18
5.2237e-18
5.76016e-18
5.09648e-18
5.48487e-18
5.0388e-18
4.87211e-18
4.9235e-18
5.49579e-18
5.21363e-18
5.03896e-18
5.01444e-18
5.1671e-18
4.83128e-18
5.32209e-18
5.43747e-18
5.50101e-18
4.81622e-18
5.2036e-18
5.37602e-18
5.25047e-18
5.71694e-18
5.19154e-18
4.79199e-18
5.42358e-18
5.28013e-18
5.80753e-18
9.32205e-18
1.00074e-17
9.97448e-18
9.51954e-18
9.14737e-18
9.38094e-18
9.80106e-18
9.73358e-18
1.00035e-17
9.63512e-18
9.29691e-18
9.89376e-18
1.02552e-17
9.03748e-18
9.78349e-18
9.69198e-18
9.72741e-18
9.78192e-18
9.74558e-18
9.36792e-18
1.00758e-17
9.42049e-18
9.38598e-18
1.00191e-17
9.67002e-18
9.98401e-18
9.49477e-18
9.76676e-18
1.00244e-17
1.01616e-17
1.02877e-17
9.08152e-18
1.00002e-17
9.87084e-18
9.86741e-18
9.66769e-18
1.0893e-17
9.80348e-18
9.44163e-18
9.88281e-18
9.92838e-18
9.07015e-18
9.15474e-18
9.50902e-18
9.73651e-18
1.01851e-17
9.70706e-18
1.00672e-17
9.80324e-18
9.79973e-18
9.43682e-18
9.44072e-18
9.90502e-18
9.24813e-18
9.26766e-18
1.01569e-17
9.5696e-18
1.02402e-17
9.78159e-18
9.50951e-18
9.62326e-18
9.95341e-18
9.20751e-18
1.03977e-17
9.16571e-18
9.59958e-18
1.01771e-17
1.01754e-17
8.78659e-18
1.00303e-17
9.84345e-18
1.01301e-17
9.51182e-18
9.50494e-18
8.97356e-18
9.67045e-18
9.74664e-18
9.43474e-18
1.06011e-17
9.94038e-18
8.80091e-18
9.82009e-18
9.93296e-18
9.44581e-18
9.06013e-18
1.00653e-17
9.90603e-18
1.0041e-17
9.74023e-18
9.45652e-18
9.95419e-18
9.19668e-18
9.91984e-18
9.82225e-18
9.23653e-18
9.14211e-18
9.72099e-18
9.59806e-18
9.72698e-18
9.70781e-18
9.44219e-18
9.30056e-18
9.97319e-18
9.57438e-18
9.21859e-18
8.90145e-18
9.96436e-18
9.39813e-18
1.00379e-17
9.81542e-18
9.59201e-18
9.80589e-18
1.03743e-17
9.42168e-18
9.73528e-18
1.09392e-17
9.88759e-18
9.39883e-18
9.97884e-18
9.65353e-18
9.69825e-18
9.78538e-18
1.04009e-17
9.71897e-18
8.78953e-18
9.33701e-18
9.74877e-18
1.03644e-17
9.74374e-18
9.77434e-18
1.02105e-17
9.52926e-18
8.52506e-18
9.71307e-18
1.00429e-17
1.00296e-17
9.50367e-18
9.13841e-18
9.90628e-18
9.74134e-18
9.148e-18
9.10822e-18
9.93517e-18
9.84259e-18
9.7604e-18
1.02799e-17
9.40114e-18
9.20825e-18
9.87528e-18
9.45982e-18
9.49551e-18
9.4599e-18
9.75181e-18
9.92834e-18
9.01912e-18
9.60911e-18
9.15063e-18
9.16432e-18
9.76931e-18
1.04915e-17
9.10674e-18
9.73478e-18
9.13641e-18
8.96299e-18
1.01907e-17
1.06088e-17
9.84551e-18
9.48364e-18
9.53202e-18
9.61925e-18
9.82011e-18
1.03105e-17
9.8431e-18
9.41237e-18
9.621e-18
9.86697e-18
1.02841e-17
9.91464e-18
9.84488e-18
1.10024e-17
9.80055e-18
9.22986e-18
8.57512e-18
9.71532e-18
9.28719e-18
9.36437e-18
1.00293e-17
9.52498e-18
1.02034e-17
8.83225e-18
9.41992e-18
9.97378e-18
9.51013e-18
9.64869e-18
1.02447e-17
9.52268e-18
9.66492e-18
9.70414e-18
9.7109e-18
9.38955e-18
1.07802e-17
9.82432e-18
9.798e-18
9.47798e-18
9.86434e-18
8.87922e-18
1.00366e-17
9.84817e-18
9.29826e-18
9.85721e-18
9.96218e-18
9.56683e-18
9.48362e-18
1.00178e-17
9.5449e-18
9.43582e-18
9.21645e-18
9.14722e-18
8.95167e-18
9.91498e-18
9.39906e-18
1.02157e-17
9.74913e-18
9.15934e-18
9.52512e-18
1.00029e-17
9.3217e-18
9.12173e-18
1.03823e-17
9.88606e-18
8.59194e-18
9.34391e-18
9.49704e-18
9.86398e-18
9.6204e-18
8.53802e-18
9.94828e-18
9.77052e-18
9.41489e-18
1.03629e-17
1.02113e-17
9.28241e-18
9.47025e-18
9.89032e-18
9.69061e-18
9.43918e-18
1.01733e-17
1.01469e-17
8.78283e-18
9.22218e-18
9.73239e-18
9.7539e-18
1.00633e-17
9.81941e-18
1.0318e-17
9.19376e-18
1.86401e-17
1.97463e-17
1.66601e-17
1.81193e-17
1.88629e-17
1.83263e-17
1.83696e-17
1.89055e-17
1.7921e-17
1.76724e-17
1.68379e-17
1.85523e-17
1.94512e-17
1.76119e-17
1.84361e-17
1.85668e-17
1.84299e-17
1.97301e-17
1.83889e-17
1.87995e-17
1.88058e-17
1.79207e-17
1.77107e-17
1.75215e-17
1.80684e-17
1.93046e-17
1.89038e-17
1.80696e-17
1.83238e-17
1.9813e-17
1.63975e-17
1.76901e-17
1.8272e-17
1.78742e-17
1.75579e-17
1.80435e-17
1.87517e-17
1.90354e-17
1.77584e-17
1.64551e-17
1.847e-17
1.84472e-17
1.81695e-17
1.85973e-17
1.67612e-17
1.96668e-17
1.85507e-17
1.83653e-17
1.75452e-17
2.02023e-17
1.80995e-17
1.83098e-17
1.7738e-17
1.72743e-17
1.90451e-17
1.82973e-17
1.767e-17
1.87287e-17
1.90041e-17
1.75057e-17
1.8555e-17
1.838e-17
1.7865e-17
1.89942e-17
1.84301e-17
1.82877e-17
1.72844e-17
1.82468e-17
1.76138e-17
1.85117e-17
1.72001e-17
1.75857e-17
1.79726e-17
1.80909e-17
1.75837e-17
1.77766e-17
1.74766e-17
1.84838e-17
1.83408e-17
1.8228e-17
1.71994e-17
1.68707e-17
1.82998e-17
1.93332e-17
1.79657e-17
1.76652e-17
1.777e-17
1.88018e-17
1.94424e-17
1.86887e-17
1.807e-17
1.76297e-17
1.74357e-17
1.84173e-17
1.82009e-17
1.9222e-17
1.94907e-17
1.94443e-17
1.82348e-17
1.81717e-17
1.81873e-17
1.76718e-17
1.90178e-17
1.78495e-17
1.85984e-17
1.84485e-17
1.75656e-17
1.71262e-17
1.80781e-17
1.74431e-17
1.71437e-17
1.9388e-17
1.80252e-17
1.73949e-17
1.83665e-17
1.83006e-17
1.80361e-17
1.89475e-17
1.89118e-17
1.83612e-17
2.05692e-17
1.92805e-17
1.76188e-17
1.9334e-17
1.82943e-17
1.78042e-17
1.77603e-17
1.74609e-17
1.7369e-17
1.75989e-17
1.80527e-17
2.00605e-17
1.62345e-17
1.85428e-17
1.74817e-17
1.82259e-17
1.89108e-17
1.75589e-17
1.69646e-17
1.81916e-17
1.85009e-17
1.85852e-17
1.85993e-17
1.91649e-17
1.92095e-17
1.96723e-17
1.79536e-17
1.82011e-17
1.89265e-17
1.80824e-17
1.79135e-17
1.7792e-17
1.78611e-17
1.70886e-17
1.67098e-17
1.74642e-17
1.87651e-17
1.96804e-17
1.82819e-17
1.8048e-17
1.55333e-17
2.01884e-17
1.97674e-17
1.84063e-17
1.89075e-17
1.71717e-17
1.92386e-17
1.7625e-17
1.83682e-17
1.90906e-17
1.86673e-17
1.83188e-17
1.86824e-17
1.84259e-17
1.77813e-17
1.74417e-17
1.78651e-17
1.62984e-17
1.61431e-17
1.78383e-17
2.01415e-17
2.0011e-17
1.91271e-17
1.78628e-17
1.79977e-17
1.68058e-17
1.83757e-17
1.84759e-17
1.7827e-17
1.92531e-17
1.86499e-17
1.8258e-17
1.81221e-17
1.85134e-17
1.80485e-17
1.73181e-17
1.86315e-17
1.672e-17
1.72388e-17
1.81459e-17
1.78931e-17
1.81081e-17
1.93099e-17
1.83193e-17
1.80361e-17
1.6379e-17
1.87619e-17
1.78575e-17
1.72324e-17
1.76499e-17
1.91184e-17
1.8351e-17
1.77189e-17
1.89234e-17
1.86778e-17
1.77557e-17
1.74479e-17
1.84243e-17
1.8412e-17
1.77139e-17
1.63604e-17
1.79293e-17
1.79143e-17
1.86139e-17
1.83452e-17
1.73414e-17
1.82475e-17
1.92112e-17
1.7473e-17
1.80021e-17
1.79748e-17
1.70751e-17
1.70463e-17
1.80554e-17
1.68026e-17
1.86623e-17
1.81952e-17
1.93633e-17
1.69187e-17
1.99373e-17
1.89042e-17
1.94902e-17
1.81142e-17
1.74257e-17
1.81886e-17
1.77168e-17
1.78796e-17
1.87397e-17
1.88976e-17
1.88972e-17
1.84877e-17
1.7437e-17
1.73243e-17
1.90027e-17
1.87851e-17
1.73311e-17
3.15128e-17
3.42089e-17
3.30529e-17
3.41222e-17
3.48544e-17
3.7368e-17
3.24782e-17
3.28525e-17
3.47017e-17
3.40659e-17
3.29688e-17
3.20458e-17
3.19764e-17
3.15303e-17
3.56203e-17
3.44007e-17
3.19435e-17
3.43323e-17
3.10647e-17
3.43709e-17
3.34523e-17
3.41555e-17
3.38384e-17
3.18238e-17
3.44385e-17
3.37889e-17
3.25828e-17
3.2143e-17
3.25133e-17
3.18913e-17
3.39537e-17
3.76817e-17
3.27124e-17
3.2359e-17
3.27793e-17
3.36055e-17
3.43491e-17
3.35624e-17
3.38033e-17
3.34136e-17
3.28719e-17
3.51427e-17
3.53606e-17
3.22219e-17
3.39518e-17
3.21945e-17
3.42522e-17
3.26153e-17
3.41861e-17
3.48516e-17
3.30915e-17
3.31713e-17
3.32183e-17
3.51403e-17
3.1911e-17
3.26361e-17
3.25505e-17
3.21753e-17
3.31375e-17
3.2859e-17
3.45144e-17
3.4844e-17
3.04467e-17
3.32438e-17
3.60811e-17
3.41589e-17
3.13171e-17
3.44026e-17
3.4372e-17
3.1328e-17
3.13976e-17
3.29158e-17
3.81662e-17
3.28089e-17
3.38208e-17
3.30182e-17
3.4491e-17
3.34574e-17
3.3548e-17
3.45261e-17
3.27526e-17
3.50969e-17
3.37852e-17
3.60482e-17
3.61654e-17
3.26315e-17
3.45415e-17
3.27541e-17
3.30139e-17
3.23778e-17
3.46984e-17
3.45773e-17
3.43081e-17
3.24293e-17
3.27181e-17
3.23929e-17
3.21545e-17
3.38704e-17
3.24847e-17
3.40591e-17
3.89571e-17
3.08875e-17
3.40088e-17
3.43126e-17
3.29228e-17
3.41063e-17
3.47116e-17
3.35167e-17
3.62101e-17
3.31431e-17
3.45341e-17
3.46252e-17
3.71185e-17
3.18646e-17
3.49021e-17
3.09382e-17
3.11286e-17
3.54015e-17
3.34393e-17
3.39497e-17
3.16987e-17
3.47165e-17
3.42166e-17
3.29481e-17
3.49486e-17
3.48385e-17
3.5308e-17
3.59144e-17
3.65442e-17
3.35495e-17
3.40132e-17
3.42609e-17
3.21368e-17
3.303e-17
3.7285e-17
3.32413e-17
3.402e-17
3.61183e-17
3.32565e-17
3.43038e-17
3.28149e-17
3.0607e-17
3.3228e-17
3.59519e-17
3.2638e-17
3.30604e-17
3.24817e-17
3.38382e-17
3.07163e-17
3.40667e-17
3.53394e-17
3.44197e-17
3.49659e-17
3.14712e-17
3.39937e-17
3.27682e-17
3.59917e-17
3.3018e-17
3.31897e-17
3.4985e-17
3.32782e-17
3.69052e-17
3.31756e-17
3.41125e-17
3.28153e-17
3.27291e-17
3.49884e-17
3.16528e-17
3.23166e-17
3.52056e-17
3.54955e-17
3.3354e-17
3.57834e-17
3.28057e-17
3.49496e-17
3.50281e-17
3.34213e-17
3.18715e-17
3.14282e-17
3.39101e-17
3.37725e-17
3.39339e-17
3.43105e-17
3.38038e-17
3.45824e-17
3.38282e-17
3.5525e-17
3.35949e-17
3.39057e-17
3.50429e-17
3.34183e-17
3.48911e-17
3.42598e-17
3.16591e-17
3.48534e-17
3.54978e-17
3.50861e-17
3.30333e-17
3.49276e-17
3.49066e-17
3.32303e-17
3.42213e-17
3.15675e-17
3.80496e-17
3.54305e-17
3.21234e-17
3.48028e-17
3.59087e-17
3.34858e-17
3.3732e-17
3.22767e-17
3.4074e-17
3.32264e-17
3.24044e-17
3.29015e-17
3.47241e-17
3.46351e-17
3.33319e-17
3.38926e-17
3.52465e-17
3.42596e-17
3.16964e-17
3.44134e-17
3.54562e-17
3.43922e-17
3.39641e-17
3.64347e-17
3.2455e-17
3.54259e-17
3.49121e-17
3.36024e-17
3.52616e-17
3.54706e-17
3.44962e-17
3.38545e-17
3.62776e-17
3.33828e-17
3.4294e-17
3.1927e-17
3.41953e-17
3.14999e-17
3.19928e-17
3.58859e-17
3.30002e-17
3.27424e-17
3.53484e-17
3.31432e-17
3.12493e-17
3.47619e-17
3.31947e-17
3.29021e-17
3.22724e-17
3.35903e-17
3.01943e-17
3.42117e-17
3.58047e-17
6.53079e-17
6.21557e-17
6.53333e-17
5.92874e-17
6.79437e-17
6.37265e-17
5.9974e-17
6.45321e-17
5.80568e-17
6.27128e-17
6.17328e-17
6.49518e-17
6.27273e-17
5.59619e-17
6.37558e-17
6.24717e-17
6.5194e-17
6.52895e-17
5.71059e-17
6.41043e-17
5.99319e-17
6.29615e-17
6.15446e-17
6.77774e-17
6.4644e-17
6.67047e-17
6.69512e-17
6.5267e-17
5.98602e-17
6.4745e-17
6.5646e-17
6.49986e-17
5.87942e-17
5.67584e-17
6.2713e-17
6.7427e-17
6.75528e-17
6.60437e-17
5.76343e-17
6.66754e-17
6.13826e-17
6.8077e-17
7.18874e-17
5.914e-17
5.84592e-17
6.70571e-17
6.18803e-17
6.14209e-17
6.71319e-17
6.50488e-17
6.17942e-17
6.36935e-17
6.95439e-17
6.91788e-17
6.41467e-17
6.25237e-17
6.97884e-17
6.48194e-17
6.17557e-17
6.5013e-17
5.98618e-17
5.91912e-17
6.4452e-17
6.77247e-17
6.21252e-17
6.09752e-17
6.58021e-17
6.35468e-17
6.56447e-17
6.43776e-17
7.13336e-17
6.49714e-17
6.07266e-17
6.25268e-17
6.27835e-17
6.75484e-17
6.60068e-17
5.97488e-17
6.35496e-17
5.9271e-17
6.26441e-17
6.12936e-17
5.98392e-17
7.0076e-17
5.93634e-17
6.2931e-17
6.17882e-17
6.33921e-17
6.09677e-17
6.1809e-17
6.24904e-17
6.00607e-17
6.31366e-17
6.07211e-17
6.30989e-17
6.16431e-17
6.57384e-17
6.38446e-17
5.78652e-17
5.88402e-17
6.2737e-17
6.32165e-17
6.17748e-17
6.63475e-17
5.84309e-17
6.83638e-17
6.29162e-17
6.30295e-17
6.43272e-17
6.12949e-17
6.37578e-17
6.35122e-17
6.24506e-17
6.34699e-17
6.58462e-17
6.66171e-17
6.1391e-17
6.32225e-17
6.94102e-17
6.21621e-17
6.41274e-17
6.12875e-17
5.83746e-17
5.91211e-17
6.44506e-17
5.84655e-17
6.36783e-17
6.14453e-17
6.78917e-17
6.41686e-17
6.41734e-17
6.21626e-17
6.47601e-17
6.67804e-17
6.3291e-17
6.1574e-17
6.35995e-17
6.00016e-17
6.29882e-17
6.49084e-17
6.66433e-17
6.02596e-17
6.69399e-17
6.42149e-17
6.22187e-17
6.42243e-17
6.2255e-17
6.02637e-17
6.03508e-17
6.60957e-17
6.22518e-17
6.44919e-17
6.58516e-17
6.44196e-17
6.18093e-17
6.87835e-17
6.18795e-17
5.98345e-17
6.34841e-17
5.77864e-17
6.31556e-17
6.45845e-17
6.23796e-17
6.66827e-17
5.952e-17
5.67203e-17
6.38408e-17
6.19706e-17
6.54829e-17
5.75538e-17
6.63208e-17
6.40582e-17
6.09533e-17
6.53965e-17
6.85323e-17
6.19605e-17
6.40175e-17
6.99643e-17
6.41221e-17
5.95708e-17
6.09643e-17
6.63651e-17
6.27946e-17
6.60947e-17
6.25238e-17
6.20435e-17
6.44505e-17
6.11309e-17
6.66903e-17
6.1955e-17
6.27866e-17
6.20307e-17
6.25914e-17
6.34202e-17
6.45207e-17
6.04664e-17
6.56154e-17
5.96867e-17
6.58095e-17
6.32854e-17
6.26948e-17
6.46627e-17
6.39021e-17
6.48971e-17
6.57362e-17
6.28328e-17
6.53439e-17
6.82905e-17
6.22957e-17
6.19921e-17
5.94067e-17
6.5113e-17
6.3308e-17
6.12515e-17
6.27919e-17
6.09761e-17
6.13742e-17
6.28601e-17
5.93495e-17
6.49135e-17
6.38898e-17
6.38326e-17
6.52701e-17
5.77981e-17
6.04991e-17
6.06069e-17
6.43734e-17
6.52996e-17
6.32673e-17
6.37244e-17
6.12062e-17
6.44029e-17
6.66673e-17
6.25126e-17
6.37146e-17
6.00227e-17
6.26207e-17
6.02508e-17
6.25823e-17
5.89054e-17
5.72894e-17
6.14435e-17
6.8894e-17
6.54897e-17
6.39296e-17
6.38665e-17
6.4247e-17
6.44134e-17
6.49452e-17
6.41481e-17
6.54172e-17
6.92999e-17
6.3316e-17
5.97581e-17
6.27211e-17
6.65149e-17
1.09633e-16
1.21533e-16
1.19407e-16
1.12422e-16
1.2192e-16
1.15638e-16
1.26678e-16
1.1646e-16
1.11935e-16
1.16486e-16
1.19233e-16
1.24184e-16
1.18011e-16
1.23118e-16
1.11504e-16
1.14998e-16
1.27704e-16
1.16837e-16
1.17837e-16
1.15027e-16
1.06908e-16
1.23167e-16
1.13693e-16
1.22148e-16
1.15313e-16
1.22716e-16
1.22952e-16
1.17668e-16
1.15606e-16
1.1324e-16
1.10153e-16
1.29497e-16
1.28251e-16
1.19937e-16
1.19704e-16
1.24413e-16
1.13457e-16
1.10688e-16
1.20548e-16
1.17991e-16
1.1009e-16
1.20023e-16
1.18944e-16
1.25448e-16
1.20118e-16
1.16688e-16
1.17043e-16
1.12249e-16
1.2242e-16
1.17061e-16
1.12248e-16
1.17288e-16
1.16533e-16
1.12923e-16
1.21007e-16
1.24311e-16
1.20948e-16
1.17241e-16
1.15934e-16
1.24081e-16
1.16007e-16
1.25619e-16
1.15848e-16
1.19157e-16
1.07434e-16
1.11356e-16
1.19903e-16
1.26569e-16
1.08432e-16
1.17425e-16
1.21789e-16
1.17797e-16
1.19406e-16
1.18069e-16
1.20638e-16
1.15859e-16
1.22922e-16
1.15416e-16
1.13303e-16
1.19644e-16
1.14881e-16
1.21806e-16
1.14456e-16
1.2436e-16
1.24658e-16
1.09198e-16
1.16288e-16
1.17393e-16
1.17938e-16
1.21496e-16
1.18146e-16
1.18008e-16
1.2808e-16
1.17225e-16
1.22715e-16
1.22958e-16
1.12128e-16
1.27752e-16
1.22613e-16
1.11652e-16
1.20204e-16
1.17062e-16
1.22032e-16
1.19983e-16
1.18363e-16
1.14312e-16
1.19042e-16
1.16768e-16
1.15557e-16
1.15768e-16
1.17156e-16
1.12459e-16
1.07212e-16
1.17596e-16
1.07492e-16
1.26643e-16
1.21434e-16
1.08471e-16
1.14653e-16
1.01065e-16
1.23835e-16
1.25584e-16
1.18033e-16
1.17505e-16
1.21878e-16
1.23629e-16
1.16425e-16
1.17699e-16
1.19752e-16
1.0989e-16
1.18169e-16
1.15624e-16
1.19642e-16
1.17177e-16
1.16834e-16
1.18911e-16
1.00658e-16
1.18679e-16
1.1867e-16
1.11585e-16
1.15133e-16
1.20456e-16
1.22081e-16
1.1242e-16
1.23394e-16
1.21171e-16
1.16026e-16
1.2017e-16
1.21821e-16
1.20964e-16
1.12637e-16
1.19624e-16
1.255e-16
1.22366e-16
1.09521e-16
1.28925e-16
1.2723e-16
1.15055e-16
1.25093e-16
1.16521e-16
1.14455e-16
1.12885e-16
1.21077e-16
1.16286e-16
1.25916e-16
1.1735e-16
1.23359e-16
1.15002e-16
1.18884e-16
1.17679e-16
1.22961e-16
1.16039e-16
1.18431e-16
1.09302e-16
1.15345e-16
1.17601e-16
1.19748e-16
1.24771e-16
1.15543e-16
1.2058e-16
1.21968e-16
1.22602e-16
1.12754e-16
1.12512e-16
1.15778e-16
1.18351e-16
1.15452e-16
1.10949e-16
1.2338e-16
1.21152e-16
1.11381e-16
1.14307e-16
1.21112e-16
1.14846e-16
1.16313e-16
1.1254e-16
1.12622e-16
1.19444e-16
1.15217e-16
1.1212e-16
1.26679e-16
1.21108e-16
1.19933e-16
1.23841e-16
1.09571e-16
1.15833e-16
1.20916e-16
1.09395e-16
1.14798e-16
1.20439e-16
1.16862e-16
1.22575e-16
1.18709e-16
1.12602e-16
1.16082e-16
1.2129e-16
1.23711e-16
1.23799e-16
1.10573e-16
1.19975e-16
1.21171e-16
1.18808e-16
1.11986e-16
1.19507e-16
1.27e-16
1.26881e-16
1.14768e-16
1.24173e-16
1.16371e-16
1.19378e-16
1.1502e-16
1.09491e-16
1.21414e-16
1.20626e-16
1.18946e-16
1.17189e-16
1.18982e-16
1.14892e-16
1.11263e-16
1.13384e-16
1.2043e-16
1.14493e-16
1.14535e-16
1.24463e-16
1.17473e-16
1.19839e-16
1.25783e-16
1.11131e-16
1.12715e-16
1.09729e-16
1.20229e-16
1.22544e-16
1.224e-16
1.18383e-16
1.18711e-16
1.1453e-16
2.33713e-16
2.19534e-16
2.12056e-16
2.21281e-16
2.13254e-16
2.13965e-16
2.13259e-16
2.21886e-16
2.06939e-16
2.29411e-16
2.24566e-16
2.34454e-16
2.26965e-16
2.21545e-16
2.09896e-16
2.09006e-16
2.08762e-16
2.26843e-16
2.2025e-16
2.05825e-16
2.23081e-16
2.23014e-16
2.07898e-16
2.1945e-16
2.22925e-16
2.15356e-16
2.21727e-16
2.19583e-16
2.09031e-16
2.05973e-16
2.17835e-16
2.29865e-16
2.26606e-16
2.18416e-16
2.11373e-16
2.16415e-16
2.09004e-16
2.20106e-16
2.17151e-16
2.07849e-16
2.06143e-16
2.1867e-16
2.20667e-16
2.16307e-16
2.25751e-16
2.29634e-16
2.2565e-16
2.06496e-16
2.12293e-16
2.3243e-16
2.076e-16
2.30771e-16
2.20598e-16
2.38465e-16
2.32816e-16
2.18514e-16
2.2048e-16
2.24742e-16
2.13239e-16
2.22819e-16
2.46896e-16
2.24648e-16
2.19043e-16
2.22026e-16
2.28653e-16
2.26582e-16
2.17445e-16
2.17939e-16
2.17907e-16
2.26484e-16
2.19553e-16
2.18196e-16
2.0674e-16
2.31396e-16
2.16429e-16
2.12873e-16
2.29002e-16
2.41851e-16
2.24926e-16
2.37147e-16
2.2039e-16
2.29275e-16
2.18178e-16
2.17232e-16
2.19967e-16
2.12128e-16
2.25008e-16
2.0979e-16
2.08734e-16
2.30918e-16
2.29522e-16
2.20032e-16
2.27938e-16
2.27922e-16
2.34677e-16
2.17608e-16
2.16012e-16
2.28934e-16
2.30899e-16
2.34725e-16
2.28228e-16
2.28735e-16
2.33438e-16
2.14111e-16
2.29394e-16
2.3246e-16
2.32594e-16
2.18307e-16
2.09467e-16
2.13981e-16
2.38449e-16
2.20458e-16
2.3185e-16
2.23395e-16
2.25164e-16
2.19034e-16
2.18312e-16
2.09002e-16
2.24191e-16
1.9864e-16
2.31806e-16
2.06427e-16
2.33763e-16
2.36543e-16
2.33229e-16
2.04939e-16
2.27234e-16
2.21577e-16
2.27397e-16
2.099e-16
2.16164e-16
2.17911e-16
2.20913e-16
2.13374e-16
2.16174e-16
2.03729e-16
2.42048e-16
2.20303e-16
2.2128e-16
2.15329e-16
2.2839e-16
2.17872e-16
2.20095e-16
2.22831e-16
2.21051e-16
2.26382e-16
2.21808e-16
2.09824e-16
2.424e-16
2.37341e-16
2.08782e-16
2.0021e-16
2.28722e-16
1.99943e-16
2.12498e-16
2.18501e-16
2.12872e-16
2.17666e-16
2.18678e-16
2.24058e-16
2.33048e-16
2.42312e-16
2.25371e-16
2.10109e-16
2.12311e-16
2.12593e-16
2.2367e-16
2.09708e-16
2.12796e-16
2.27765e-16
2.0644e-16
2.34606e-16
2.25524e-16
2.17626e-16
2.23313e-16
2.35018e-16
2.12951e-16
2.3105e-16
2.26319e-16
2.19679e-16
2.44107e-16
2.30125e-16
2.04602e-16
2.1929e-16
2.36422e-16
2.15827e-16
2.30555e-16
2.15271e-16
2.29428e-16
2.33293e-16
2.15602e-16
2.21032e-16
2.29023e-16
2.14559e-16
2.16804e-16
2.23672e-16
2.14862e-16
2.29775e-16
2.19096e-16
2.18886e-16
2.04889e-16
2.1486e-16
2.08691e-16
2.15289e-16
2.16232e-16
2.15865e-16
2.34964e-16
2.11759e-16
2.25133e-16
2.35801e-16
2.1772e-16
2.28357e-16
2.15165e-16
2.1479e-16
2.33569e-16
1.98112e-16
2.24604e-16
2.16522e-16
2.19658e-16
2.42705e-16
2.21241e-16
2.34421e-16
2.25027e-16
2.45736e-16
2.16792e-16
2.15362e-16
2.22017e-16
2.19281e-16
2.23986e-16
2.22395e-16
2.41646e-16
2.43838e-16
2.2135e-16
2.23837e-16
2.21375e-16
2.31545e-16
2.21667e-16
2.42718e-16
2.26974e-16
2.22911e-16
2.24666e-16
2.25525e-16
2.24139e-16
2.27024e-16
2.19245e-16
2.14874e-16
2.196e-16
2.31152e-16
2.29761e-16
2.16783e-16
2.27673e-16
2.1703e-16
1.98821e-16
2.03729e-16
2.19958e-16
2.14306e-16
4.15745e-16
4.01e-16
4.50538e-16
4.3389e-16
4.27154e-16
4.22254e-16
3.92827e-16
4.28839e-16
4.30806e-16
3.88807e-16
4.13331e-16
4.02219e-16
3.86696e-16
4.13093e-16
4.07387e-16
3.88162e-16
4.44184e-16
3.92313e-16
3.76101e-16
4.31729e-16
4.04292e-16
3.98654e-16
4.03045e-16
4.41113e-16
4.17097e-16
4.30982e-16
4.20836e-16
3.99409e-16
3.96973e-16
4.34527e-16
4.20888e-16
4.21444e-16
3.85189e-16
4.10361e-16
4.12846e-16
4.30758e-16
4.10142e-16
4.20689e-16
4.39744e-16
4.4195e-16
4.52765e-16
3.86778e-16
4.03081e-16
4.23651e-16
4.10118e-16
4.1488e-16
4.13177e-16
4.20843e-16
4.1778e-16
4.11247e-16
4.16076e-16
4.38417e-16
4.46262e-16
4.19144e-16
4.0403e-16
3.72579e-16
4.00274e-16
4.13644e-16
4.06873e-16
4.11167e-16
4.39297e-16
3.87857e-16
3.75283e-16
4.17627e-16
4.0467e-16
3.84387e-16
4.06192e-16
4.13102e-16
4.07834e-16
4.35729e-16
4.10756e-16
3.95973e-16
4.13743e-16
4.16404e-16
4.20083e-16
4.06434e-16
4.06645e-16
4.29593e-16
4.13162e-16
4.25877e-16
4.07057e-16
4.10855e-16
3.99338e-16
4.12899e-16
4.15247e-16
4.07221e-16
4.23662e-16
4.23397e-16
3.83801e-16
3.74984e-16
3.75223e-16
4.20114e-16
4.14434e-16
3.85051e-16
4.27258e-16
3.97601e-16
4.23799e-16
4.11825e-16
3.99638e-16
3.87394e-16
3.88824e-16
4.07063e-16
4.24138e-16
3.84404e-16
4.05562e-16
4.40269e-16
4.15737e-16
4.11606e-16
4.23445e-16
4.15589e-16
4.10217e-16
3.97096e-16
4.22349e-16
4.52487e-16
4.00343e-16
3.95406e-16
4.02312e-16
4.0296e-16
4.48732e-16
4.09428e-16
4.26318e-16
3.87795e-16
3.96463e-16
3.99425e-16
4.11499e-16
3.83693e-16
3.95288e-16
3.88045e-16
3.91868e-16
4.23337e-16
4.32501e-16
4.37303e-16
3.6695e-16
4.02762e-16
4.18328e-16
4.1035e-16
4.11632e-16
4.27478e-16
4.06628e-16
3.92384e-16
4.02945e-16
4.12836e-16
4.12581e-16
3.87389e-16
3.81115e-16
4.32546e-16
4.1849e-16
4.04878e-16
4.14102e-16
4.0442e-16
4.0252e-16
4.42269e-16
4.08235e-16
4.06033e-16
4.15264e-16
4.55835e-16
4.40147e-16
3.84586e-16
3.98597e-16
4.08235e-16
4.10756e-16
4.06227e-16
4.09657e-16
4.14106e-16
4.30785e-16
3.97218e-16
4.17184e-16
4.07919e-16
4.35142e-16
4.14757e-16
4.13484e-16
4.15302e-16
3.97419e-16
3.93922e-16
3.6322e-16
4.21768e-16
4.07292e-16
4.15955e-16
4.30333e-16
3.91611e-16
4.18736e-16
3.94878e-16
4.04624e-16
4.30229e-16
4.16833e-16
4.28754e-16
4.10682e-16
3.83302e-16
4.09711e-16
4.43117e-16
3.84399e-16
4.27585e-16
4.33173e-16
4.15134e-16
4.1936e-16
4.33004e-16
3.95199e-16
4.0758e-16
4.15866e-16
4.18779e-16