# vtk DataFile Version 1.0
Net Charge Density
ASCII
DATASET STRUCTURED_POINTS
DIMENSIONS 256 128 1
ORIGIN 0 0 0
SPACING 0.15625 0.15625 1
POINT_DATA 32768
SCALARS rhonet float
LOOKUP_TABLE default
-3.89561e-06
-9.51278e-05
0.000144792
9.63216e-05
3.56843e-05
0.000120451
-0.000118445
9.18584e-05
0.000154216
2.28998e-05
-3.75605e-05
0.000108725
0.000103821
7.94461e-05
0.000109346
4.99609e-05
8.77434e-05
0.000140236
4.05881e-05
-6.79102e-05
-6.40727e-06
0.000141858
0.000144766
4.77822e-05
3.72678e-05
2.07425e-05
7.74213e-05
9.05889e-05
-1.35216e-05
-7.2743e-05
5.23025e-05
3.97241e-05
4.36688e-05
6.90087e-05
1.24415e-05
0.000171713
1.68071e-05
7.2873e-05
7.73573e-05
-5.53206e-06
2.29318e-05
6.83207e-06
0.000136403
9.39812e-05
2.09385e-05
1.86834e-05
-3.16133e-05
6.95544e-05
0.000116213
7.88718e-05
-1.20081e-05
2.4978e-05
8.34427e-05
0.000148995
3.55951e-05
1.7504e-05
0.000151011
-5.17475e-05
5.67851e-06
7.16951e-05
5.02799e-05
6.06022e-05
7.16746e-06
8.018e-05
8.22486e-05
-8.03827e-05
4.41823e-05
0.000136175
4.09957e-05
4.82838e-05
7.92337e-05
3.67109e-05
-2.69157e-05
4.96677e-05
-1.13971e-07
5.11551e-05
4.20866e-05
-3.83086e-05
9.21621e-05
0.000106615
8.71842e-05
2.54081e-05
7.49619e-05
0.000101106
4.54687e-05
-4.47943e-06
-1.66913e-05
6.70481e-05
0.000119669
-2.34876e-05
9.00023e-05
-1.47956e-05
-3.90536e-05
-6.21437e-06
-8.99183e-05
5.22707e-05
0.000157962
2.40973e-05
9.16887e-05
-2.49445e-05
0.000157724
9.09177e-05
-3.16952e-06
9.47253e-05
3.90382e-05
0.000130971
-2.59141e-07
-6.85491e-05
2.66253e-06
7.40001e-05
0.00013342
5.79276e-05
2.02989e-05
3.31157e-05
8.04204e-05
4.36596e-05
1.22663e-05
7.49691e-05
5.09608e-05
4.32276e-05
-3.98805e-05
-3.45628e-05
4.04442e-05
2.44897e-05
0.000115721
6.60872e-05
1.82545e-05
8.13098e-05
1.99645e-05
-1.88097e-05
0.000119797
9.26162e-05
-2.24425e-06
3.77485e-05
2.03241e-05
6.79656e-06
4.46097e-05
-3.19156e-05
4.68963e-05
-1.15016e-05
-4.98414e-05
2.32945e-05
2.09627e-05
0.000160761
9.88224e-05
2.06358e-06
0.000137836
1.15241e-05
-3.11239e-05
0.000132418
1.78271e-05
2.91318e-05
0.000108428
-8.34558e-06
3.45046e-05
4.32306e-05
5.74579e-06
3.4272e-05
-5.27629e-06
1.75426e-05
7.6778e-05
2.50088e-05
0.000112709
-2.20691e-05
3.25853e-05
2.55231e-05
5.84617e-05
-6.1273e-05
0.000105448
0.000137295
2.50292e-05
4.32237e-05
7.45816e-05
0.000111579
-2.02684e-05
-8.13324e-06
8.72934e-05
-8.23219e-05
1.15584e-05
3.3181e-05
8.87691e-05
-7.06001e-05
-3.18106e-05
5.65348e-06
1.04979e-05
7.98533e-05
4.142e-05
7.20922e-05
0.000102554
7.46858e-05
2.48842e-05
0.000198126
8.16116e-05
-6.56988e-05
6.24203e-05
0.000201229
4.75226e-05
8.32751e-05
7.86672e-05
-1.63092e-05
5.95992e-05
0.00014917
4.3901e-05
3.83352e-05
-1.00756e-05
6.97714e-05
-5.9888e-05
5.34228e-05
6.86811e-05
8.57906e-05
6.81025e-05
0.000137439
0.000106097
-2.40526e-05
0.000111081
-0.00013128
0.00010269
9.90944e-05
-5.28722e-05
-3.79208e-05
8.69744e-05
0.000114877
0.000176991
3.40518e-05
7.95299e-05
5.67447e-05
-3.69139e-05
-1.51403e-05
8.69039e-05
6.86068e-05
6.22857e-06
4.16548e-05
2.36374e-05
2.60698e-05
0.000121307
-3.55702e-05
-2.05772e-05
2.75006e-05
5.94518e-05
8.98039e-06
1.84991e-05
8.6694e-05
-5.82668e-05
-3.0722e-07
2.65902e-05
-1.44093e-05
-2.21955e-05
-3.95468e-05
0.000128655
-4.29619e-06
2.10477e-05
-3.85139e-05
0.000102294
2.14378e-05
2.40528e-05
4.18612e-05
-0.000104899
2.47048e-05
-6.303e-05
-2.51195e-05
-2.38866e-05
5.1226e-05
-2.60444e-05
-7.57645e-05
4.9893e-05
-6.60466e-05
-4.29003e-05
2.33414e-05
-5.99092e-05
-8.02727e-05
3.00258e-06
-4.24261e-05
4.6615e-06
1.08912e-05
-2.15755e-05
-4.06092e-06
-5.82072e-05
-6.74941e-05
-0.000106138
-1.79204e-05
-2.0046e-05
-5.72725e-05
-2.52757e-05
7.73056e-06
-3.07412e-05
-8.53869e-05
-3.53877e-05
-8.36153e-06
2.74428e-05
-7.95684e-05
-6.67485e-05
2.3133e-05
-0.000103178
-3.37887e-05
1.98346e-05
-8.20324e-05
-5.15858e-05
-4.3842e-05
8.67213e-06
3.55993e-05
-2.47122e-05
4.87361e-06
-0.000112384
-3.15164e-05
3.88793e-05
-3.39408e-05
-6.56142e-05
-4.11926e-05
-3.17373e-05
2.98246e-05
-2.85313e-05
-3.54565e-05
-2.34864e-05
-0.00011611
1.48097e-05
-3.37928e-05
4.56306e-05
-5.12691e-05
-5.7285e-05
-3.73455e-05
-3.01463e-05
-6.0566e-05
-1.00273e-05
-7.96339e-05
-0.000109192
1.21044e-05
-4.39819e-05
9.01718e-06
-1.8436e-05
1.72422e-05
-5.13543e-05
-1.04341e-05
4.76094e-05
-2.54934e-05
5.74093e-05
2.16183e-07
-3.24118e-05
-5.04452e-05
-8.22543e-05
2.84821e-05
2.44661e-05
-6.16953e-05
-0.000158637
-4.16995e-05
-6.63567e-08
-1.69134e-05
8.77422e-06
5.33113e-05
3.15614e-06
-1.07947e-05
2.47149e-05
-5.96524e-06
3.43241e-05
-2.73117e-05
-6.84708e-06
-1.89547e-06
-4.36436e-05
-0.000106618
-3.96522e-05
-2.96778e-05
-3.55602e-05
1.64213e-05
-5.91249e-05
-4.27185e-05
-1.0666e-06
-5.99946e-06
5.4352e-05
-3.54234e-05
-7.13798e-05
-7.13192e-05
4.01695e-05
1.15475e-05
-5.2352e-05
-1.11542e-05
9.64501e-06
3.18977e-05
-8.57753e-05
1.39619e-05
-6.1379e-05
-7.74185e-06
-3.48641e-05
-1.67096e-05
-4.55662e-05
-6.96026e-05
1.70243e-05
-4.88111e-05
-2.07977e-05
1.59813e-05
-1.0554e-05
-2.35453e-05
-1.24408e-05
-3.31046e-05
-4.60114e-05
-1.33581e-05
-4.22449e-05
-8.32207e-06
-5.94479e-05
-7.82586e-05
8.69809e-06
-2.01992e-06
-8.38251e-05
1.05491e-05
-3.22354e-05
-4.36755e-05
-0.000117681
-8.72521e-06
-3.99582e-05
-3.83079e-05
-7.16741e-05
9.37027e-06
3.00057e-05
-1.70402e-05
-2.39987e-05
-1.85589e-06
-5.11222e-05
-2.0257e-05
-8.1348e-05
-6.40946e-05
3.62432e-05
-8.02714e-05
-7.56385e-06
2.37447e-05
2.21172e-05
-5.27815e-05
-2.42493e-06
3.60709e-05
-9.46568e-05
1.02379e-05
-2.21473e-05
3.97038e-05
-4.13512e-05
-2.55482e-05
-5.70097e-06
3.04058e-05
-6.90701e-05
-4.77683e-05
3.67505e-05
-4.79701e-06
2.05904e-06
-4.86567e-05
-0.000107548
-6.60247e-05
-2.66008e-05
-2.248e-05
-9.32952e-06
-1.88582e-05
-0.00010145
6.32263e-06
3.69592e-05
4.61063e-06
-1.08486e-05
-2.36547e-05
-8.50838e-05
-3.90905e-05
4.81105e-05
-6.97747e-06
-7.51885e-05
-6.46277e-05
-4.37902e-05
3.07565e-05
-5.53501e-05
1.8304e-06
-5.12166e-05
9.71674e-05
1.17972e-05
-4.1406e-05
-5.22407e-05
-4.83989e-05
-4.74001e-05
3.21246e-05
-3.50828e-05
-7.29864e-05
1.69757e-06
-2.53882e-05
-1.98886e-05
4.50586e-06
-1.73205e-05
7.05674e-05
5.70887e-05
-6.70661e-05
-3.48981e-05
-2.73383e-05
-7.02036e-05
-2.06063e-05
2.42684e-05
8.58865e-05
-8.70345e-05
6.93498e-06
-4.34535e-05
-3.62702e-05
6.90328e-05
3.75876e-05
-6.27586e-05
-4.99201e-06
2.55418e-05
-5.11217e-05
2.26244e-05
-1.34818e-05
-4.80204e-05
-1.98239e-05
3.05462e-06
3.73241e-05
3.42679e-05
-1.23482e-05
-2.31679e-05
-0.000132199
-1.66474e-07
-7.60576e-06
5.12578e-05
-7.35279e-06
-7.36322e-05
5.01657e-06
-3.30425e-05
-1.99082e-06
5.00251e-05
-7.79773e-06
-2.33892e-05
-8.48004e-06
1.05379e-06
-1.92296e-05
7.13231e-05
-5.15236e-05
7.82206e-06
3.11635e-05
6.53442e-05
-4.67901e-05
-2.90642e-05
-1.14903e-05
-2.4957e-05
-9.34289e-05
-2.0482e-05
3.51584e-05
4.88628e-05
3.64082e-05
-1.64526e-05
3.77693e-05
6.1458e-05
-4.75247e-05
4.48446e-05
4.40086e-05
9.82243e-06
-5.10865e-05
1.23077e-05
2.34437e-05
7.04305e-05
4.96688e-05
-3.57153e-05
2.25289e-05
5.27385e-06
-2.51163e-05
4.80087e-05
3.40391e-05
2.11631e-05
-2.89198e-05
-7.34261e-05
2.1675e-05
3.48728e-05
1.42073e-06
-4.63359e-05
1.81748e-06
-1.65709e-05
5.22442e-05
1.92712e-05
-4.25103e-05
-9.0595e-05
6.88469e-06
2.94277e-05
9.43325e-06
3.90768e-05
-4.01768e-05
2.79766e-05
-3.30703e-05
9.02757e-05
1.87067e-05
2.19358e-05
-2.38941e-05
3.89218e-05
7.9507e-05
-1.42958e-06
-1.07866e-05
-4.31226e-05
-5.6342e-05
3.6556e-05
5.69131e-06
-2.9766e-05
3.18503e-05
-3.75102e-05
-1.9769e-05
6.36964e-05
5.06415e-05
-4.80582e-05
-4.18767e-05
-9.31264e-06
-2.63563e-05
-1.33662e-05
5.09449e-05
7.41073e-05
-1.38809e-05
-5.52131e-05
-6.02384e-05
2.25464e-05
4.01648e-05
-3.56473e-05
4.60858e-05
6.04027e-05
1.0042e-05
-2.72848e-05
-6.8402e-05
1.03848e-05
-3.90669e-05
-6.67314e-05
1.89325e-05
-3.86655e-05
-7.26086e-05
1.5534e-05
3.44652e-05
-9.18168e-06
-2.52386e-05
3.49995e-05
6.71942e-05
-7.81403e-06
-2.3485e-05
1.90864e-05
-3.45568e-05
-3.24601e-06
3.17622e-05
-4.33621e-05
-4.44568e-05
-1.2916e-05
6.19066e-05
-1.54722e-05
-1.92435e-05
-9.33418e-07
1.07803e-05
-2.6786e-05
6.43281e-05
6.28643e-07
3.16112e-05
-3.45437e-05
-2.02113e-05
3.29814e-05
-8.92999e-06
-5.33784e-05
-6.58381e-05
-1.97744e-05
2.38384e-06
3.65482e-05
8.36758e-06
-1.87836e-06
1.48282e-05
-2.75739e-05
4.24773e-05
2.79534e-05
9.69105e-05
6.65827e-05
1.9426e-05
1.45669e-05
-1.36641e-05
5.90177e-05
5.77692e-05
-3.53302e-05
8.65564e-05
-1.88481e-05
-2.10218e-05
-5.39363e-05
1.1234e-05
-1.22988e-05
7.03163e-05
-1.07869e-05
6.14929e-06
5.77933e-05
3.47514e-05
-3.5639e-05
-5.85604e-06
4.38269e-05
2.99946e-05
1.48884e-05
3.09432e-06
-6.2997e-05
1.44145e-05
-9.34472e-05
4.10879e-05
-3.34161e-05
-7.29718e-05
6.78608e-06
-4.31382e-05
3.26068e-05
-5.40693e-05
-3.51891e-05
-7.38003e-06
-3.4678e-05
7.78143e-06
5.28594e-05
1.66991e-05
-1.6155e-06
7.61887e-05
-2.89595e-06
5.27899e-05
3.30991e-05
2.69052e-05
3.20114e-05
-4.14008e-05
-7.91219e-05
6.70413e-06
-3.71056e-05
3.3807e-07
3.12874e-05
2.55901e-05
4.6243e-05
-7.34488e-06
3.85575e-05
-1.82494e-05
8.60402e-05
-3.51761e-05
-2.42105e-05
-2.44786e-05
3.96871e-05
3.96362e-05
-5.59574e-06
-1.59825e-05
5.26484e-05
-3.12823e-05
-9.51276e-06
1.32095e-05
3.03077e-05
4.0144e-05
-6.21297e-05
6.55721e-06
-4.02798e-05
7.6816e-05
-2.30569e-05
2.42668e-06
-2.36236e-05
-7.6578e-06
1.05589e-06
-7.58455e-05
1.89045e-05
4.24928e-05
2.73378e-06
-4.68806e-05
-0.000111356
2.32974e-05
1.92823e-05
1.66928e-06
4.11414e-05
-1.26261e-05
3.11423e-06
-2.154e-05
-7.419e-05
3.57799e-05
1.81661e-05
-4.43207e-05
1.38065e-05
2.49427e-05
-1.4007e-05
-5.45267e-05
-1.59674e-05
4.84827e-05
-4.49899e-06
-0.000139602
5.79741e-05
3.08061e-05
0.000100899
-3.72755e-05
3.82713e-05
1.96721e-05
-2.1946e-05
-3.16994e-05
-3.15027e-05
5.79788e-05
8.84755e-05
-9.06782e-06
-5.99886e-05
9.2173e-06
8.46409e-06
-1.87429e-08
-2.07849e-05
-3.90379e-05
0.000130274
-3.43214e-05
-4.70518e-05
5.3711e-05
-2.79653e-06
2.82237e-06
-3.79188e-05
-6.05404e-05
4.75429e-05
4.84348e-05
-1.75375e-05
3.74631e-05
-5.19096e-05
4.18173e-05
3.39499e-05
-6.99731e-05
2.73667e-05
3.88061e-05
1.67802e-05
-5.26782e-05
6.28689e-05
-2.1962e-05
-4.31011e-05
-7.40343e-06
-2.66796e-05
4.25469e-05
3.64997e-06
2.75729e-05
-4.73881e-05
-6.43707e-06
3.03098e-05
-2.263e-05
-8.19344e-05
-4.95823e-05
1.36246e-05
3.36368e-05
4.53526e-05
-3.78178e-05
6.72052e-05
-2.02059e-05
-6.23034e-05
4.74685e-05
4.62763e-05
1.24057e-05
3.82882e-05
2.15034e-05
5.87151e-05
-6.5e-05
-4.25666e-05
-1.34123e-05
4.39056e-05
4.78696e-05
-2.23201e-05
-6.0518e-05
1.98325e-06
-2.43844e-06
-3.00119e-05
1.48925e-05
2.92041e-05
7.28871e-05
7.06634e-05
-3.58247e-05
-0.000140627
2.58462e-05
1.20292e-06
-2.88254e-05
-4.69702e-05
5.72429e-05
3.12588e-05
1.75572e-05
-0.000107817
-1.58473e-05
1.13328e-05
3.99523e-05
3.28138e-05
-4.30105e-05
3.20368e-05
3.74888e-05
-3.91933e-05
2.83307e-05
3.71945e-05
-1.37141e-05
3.56361e-05
-5.44159e-05
8.30453e-05
3.03246e-05
-1.94277e-05
-2.67293e-05
6.84276e-05
4.12187e-05
-2.91599e-05
3.35351e-05
3.92135e-05
3.6837e-05
-3.48373e-05
-2.81518e-05
1.41673e-05
3.52939e-05
-7.15663e-05
-2.16161e-05
4.60056e-05
3.64985e-05
2.31861e-05
-3.12362e-05
-7.13489e-05
2.25488e-05
-3.52724e-05
7.69852e-05
-4.16433e-05
-1.37861e-05
7.45141e-05
-5.40671e-05
4.00445e-06
-1.77845e-05
-5.58051e-05
2.01229e-05
5.96012e-06
5.05825e-05
6.31151e-05
-6.58255e-05
8.14191e-05
-4.32235e-05
-2.44341e-05
2.67195e-05
4.39491e-06
9.56748e-06
7.65536e-06
4.39049e-06
-4.22171e-05
2.17033e-05
1.0128e-05
-1.56357e-05
-7.88145e-05
-2.79718e-05
-7.33114e-06
2.62832e-05
6.22845e-06
2.38395e-05
-8.04069e-06
5.26165e-05
3.00959e-05
-3.07956e-05
-8.68582e-05
1.14747e-05
3.87335e-05
1.11612e-05
-2.85618e-05
-9.1251e-06
-2.48151e-06
2.21187e-05
-3.22983e-06
2.53449e-05
2.25466e-05
3.2097e-05
-2.08735e-05
-3.06265e-06
6.05593e-06
-3.414e-06
3.49663e-05
-2.44868e-05
5.3474e-05
1.96624e-05
1.27883e-05
-1.15682e-05
2.9252e-05
2.87103e-06
3.39588e-05
-1.87166e-05
-2.88594e-06
-6.9041e-05
2.46691e-05
-5.03869e-06
-1.26836e-05
2.05988e-05
-2.63394e-05
-2.66114e-06
-3.02473e-05
-7.38939e-05
-1.16546e-05
0.000124287
-9.6718e-05
2.30563e-05
4.08881e-05
1.12087e-05
1.89698e-05
2.29749e-05
-6.50398e-05
-1.85568e-05
-3.58938e-05
9.88785e-06
-2.2508e-05
-0.00011462
5.0643e-05
-0.000120174
-5.2155e-05
0.000129996
-2.85552e-05
-3.29316e-05
1.39814e-05
-3.08815e-06
-4.58502e-06
-6.87172e-05
5.01284e-07
2.5406e-05
-3.06809e-05
-4.8371e-05
-2.09837e-05
3.77464e-05
3.99079e-05
1.09907e-05
-3.37756e-05
2.43065e-05
4.91923e-05
4.58616e-05
-7.13919e-05
-6.57418e-05
-4.4868e-05
5.14662e-05
2.45101e-06
-1.54728e-06
-6.96708e-05
3.4133e-07
-1.04244e-05
6.89505e-06
-2.2904e-05
-2.35566e-06
-3.06219e-05
3.27418e-05
-3.22668e-06
-1.03366e-05
-2.52561e-05
2.84621e-05
9.52232e-05
-3.02619e-05
3.21709e-05
4.43814e-05
-4.54088e-05
-0.000101101
-3.30771e-05
0.00011101
6.25441e-05
-5.28276e-05
-0.000107186
-1.18127e-05
6.85668e-05
3.4612e-05
-5.40469e-05
-5.21376e-05
4.75169e-05
-4.0637e-05
-0.000119436
6.12029e-05
-1.81563e-05
-3.11721e-05
0.000105493
-4.54735e-05
-9.29439e-05
-5.38458e-05
9.50531e-06
-5.54993e-05
1.67228e-05
4.28152e-06
-7.23698e-05
6.52403e-06
4.59256e-05
6.77677e-06
-2.06672e-06
5.32218e-05
2.83378e-05
-3.75984e-05
-4.85515e-05
0.000104193
-1.62807e-05
-5.72787e-06
-2.97e-05
-2.67313e-06
-4.58125e-05
8.22765e-06
-1.31109e-05
-4.38882e-05
-3.36709e-05
-5.49546e-05
4.80602e-05
-3.43903e-05
5.50937e-05
-3.2677e-05
-2.49939e-05
-9.60869e-06
3.26957e-05
-4.3438e-05
8.21736e-05
3.99025e-06
1.01079e-05
-2.64163e-05
-1.68558e-06
5.18315e-05
-5.05233e-05
7.6535e-05
-2.69975e-05
-2.84479e-05
5.25359e-06
1.91287e-05
5.75266e-05
-1.55075e-05
1.41477e-05
1.54795e-05
9.67543e-05
-2.60595e-05
2.79699e-06
-6.8649e-05
-4.36371e-06
5.35615e-06
-6.22938e-07
-1.12267e-05
2.76109e-05
-7.0645e-05
2.38861e-05
3.64628e-05
-5.86081e-06
-1.47322e-05
5.85368e-05
-1.46357e-06
5.05242e-07
-8.36386e-06
-6.68823e-05
-7.4592e-06
-5.66773e-05
5.49147e-05
-1.55675e-05
-6.51167e-05
1.93962e-05
-2.5009e-05
1.49551e-05
4.44488e-05
-8.87795e-06
-5.64916e-05
-7.07046e-05
-8.34127e-06
-2.96301e-05
-2.1531e-06
-1.83218e-05
-1.89245e-06
-0.000102778
8.7478e-06
3.24819e-05
3.0796e-05
-0.000103662
-3.61553e-05
2.02425e-05
8.39111e-05
4.75254e-06
-1.31459e-05
3.19695e-05
7.14906e-07
-3.71365e-05
-7.51377e-05
-6.92119e-05
-2.21236e-06
-7.09705e-05
1.36672e-06
-4.37514e-05
5.21e-05
-3.20333e-05
-2.11231e-05
9.38179e-06
-1.06113e-06
4.85091e-06
-2.593e-05
5.7298e-05
-2.03835e-05
4.02206e-05
1.71233e-05
-4.36114e-05
4.79131e-06
-4.099e-05
-3.48431e-07
2.30946e-05
-3.3162e-05
1.34483e-05
1.23595e-05
-2.61044e-05
-4.6382e-05
1.1768e-05
-4.40208e-05
0.000100774
4.16173e-05
5.95762e-05
5.72717e-06
3.63658e-06
3.72169e-05
-2.83861e-05
-2.65324e-05
-3.87032e-05
-3.32444e-05
-2.94449e-06
-4.83426e-06
-7.42384e-05
-9.21184e-05
-4.1292e-05
9.36037e-05
1.79689e-05
2.46139e-05
5.07896e-05
-3.90911e-05
-4.86933e-05
-6.07772e-05
2.91874e-05
-7.01523e-05
2.39771e-05
5.70999e-05
1.43813e-05
-8.54447e-05
6.48925e-05
5.64114e-06
1.15014e-05
-0.000120717
5.33739e-05
7.36078e-05
5.39073e-06
1.38732e-05
1.18411e-05
-9.65118e-06
3.66941e-05
-3.03438e-05
4.71824e-05
6.17243e-05
-4.68118e-06
-4.0433e-05
-2.98399e-05
4.83426e-06
-1.19139e-06
4.36944e-05
-1.84914e-06
-1.13768e-05
-1.70619e-05
7.82474e-05
-4.5842e-06
1.79149e-05
-3.62853e-05
-7.78631e-05
7.38344e-05
-9.19313e-05
-5.20761e-06
2.09287e-05
2.30654e-06
7.05894e-05
3.83814e-05
7.42113e-06
5.50149e-05
-1.01447e-05
4.60945e-05
-1.6838e-05
-5.88755e-05
-4.91885e-05
5.14224e-05
5.4588e-05
-1.98529e-05
5.8101e-05
3.02007e-05
1.38802e-05
2.24967e-05
6.25562e-05
6.90273e-06
-8.80087e-05
-1.34254e-05
-5.00784e-06
4.87006e-05
5.9925e-05
6.30915e-05
1.42702e-06
2.14429e-05
-2.66376e-05
-9.90462e-06
-6.22037e-05
-1.60288e-05
3.25948e-05
-3.85359e-05
-1.90416e-05
5.31541e-05
-2.28164e-05
1.54099e-05
-4.23554e-05
-5.64498e-07
-5.11482e-05
-1.07917e-05
-0.000114608
2.06351e-05
1.91699e-05
7.28536e-05
2.73276e-05
-4.94906e-05
5.05778e-05
5.27872e-05
6.41994e-05
-7.98982e-06
4.43967e-05
-4.86515e-05
-2.58873e-05
-3.12886e-05
9.76645e-05
-4.46022e-05
-4.87088e-05
2.70442e-05
-5.04586e-05
1.36549e-05
-9.01839e-05
-0.000131355
6.04801e-05
5.67492e-05
-1.70093e-05
2.47735e-05
-9.10822e-06
5.16705e-05
-8.06581e-05
3.82909e-05
3.78337e-05
1.59078e-05
-7.97538e-06
-6.65511e-06
3.57421e-05
3.1377e-05
-9.32618e-05
-4.72961e-05
-9.38073e-05
-4.97689e-05
6.84748e-05
-3.5439e-05
9.14477e-06
-3.66222e-05
3.87218e-05
1.69355e-05
4.47608e-05
-5.40499e-05
2.94943e-05
6.61309e-05
1.22404e-05
-6.64286e-05
1.13319e-06
1.48172e-05
-1.36942e-05
6.0895e-05
-9.0804e-07
7.89303e-05
9.09716e-06
5.26159e-05
-9.66367e-05
3.41129e-05
6.60564e-06
-1.27815e-05
-4.43461e-05
-2.06711e-05
3.1502e-06
-9.30857e-07
-6.30603e-05
-0.000100799
-4.1587e-05
-9.15083e-05
-4.81862e-05
5.62919e-05
-1.5246e-05
-5.22907e-05
-2.41204e-05
-1.08288e-05
-4.57691e-05
-4.23098e-05
1.19058e-05
2.83613e-05
-1.41364e-05
-5.28245e-05
-6.13481e-05
1.77327e-05
1.07328e-05
-2.08272e-05
5.96304e-05
1.79093e-06
2.512e-05
-2.36359e-05
5.88677e-05
3.18957e-05
4.76108e-05
-7.31894e-05
7.22469e-05
-0.000100922
-6.24068e-06
6.49318e-05
8.48924e-06
3.23071e-05
-3.30666e-06
-4.32201e-05
2.37778e-06
1.99962e-05
-1.27291e-05
9.59379e-06
3.614e-05
2.75432e-05
6.92138e-05
-2.72377e-06
-6.32242e-05
-6.1451e-06
-7.61065e-06
-1.02107e-05
4.45023e-05
5.20109e-06
2.67306e-05
-6.63009e-06
-4.79864e-06
-2.94799e-05
1.43555e-05
5.68852e-06
6.79197e-05
9.01241e-06
3.43907e-05
1.84254e-05
1.29042e-05
-4.46534e-05
3.45927e-05
3.36545e-05
1.9382e-06
-1.88091e-05
4.46882e-05
-5.2389e-05
6.75364e-05
7.74649e-05
6.37211e-06
8.13849e-05
-3.18112e-05
2.20669e-05
-1.7356e-05
-2.87804e-05
-6.86576e-05
1.1924e-05
2.47912e-05
1.23704e-05
-3.4869e-05
2.16779e-05
-2.20749e-05
-3.52587e-06
1.23351e-05
1.70921e-06
2.97133e-05
-6.88571e-05
-1.33731e-05
9.18962e-05
-3.43502e-05
1.47286e-05
-1.23638e-05
4.94566e-05
2.42065e-05
-4.44679e-05
5.05932e-05
0.000106778
9.66928e-05
6.52503e-05
8.89297e-07
-7.20634e-06
-1.14567e-05
6.66897e-05
-5.448e-06
4.01799e-05
-2.33966e-05
4.17555e-05
-3.41274e-05
-2.13981e-05
6.28084e-06
-2.62645e-05
3.58212e-05
-8.93142e-05
4.69465e-05
-3.57553e-05
3.3025e-05
2.34642e-05
-9.97114e-05
2.21342e-05
3.57018e-05
-1.87461e-05
2.13254e-05
-6.78238e-05
2.71621e-05
-5.16977e-05
5.68142e-05
4.8844e-05
-1.74809e-05
3.80409e-05
4.54169e-05
1.17868e-05
-8.37981e-06
2.07493e-05
-2.05643e-05
5.28248e-05
-7.57056e-05
-4.26277e-05
-7.6727e-06
2.04982e-05
-1.54362e-05
-3.12331e-05
1.17403e-05
6.21651e-05
4.88079e-05
4.33577e-06
-0.000127571
-5.02244e-05
-6.86673e-05
-6.60993e-05
3.09133e-05
7.6151e-05
-7.01365e-05
-7.02997e-06
9.28552e-06
4.82392e-05
3.84043e-06
8.47306e-06
-6.75758e-05
-1.8583e-05
1.21737e-05
-8.66828e-06
-3.19525e-05
-1.42829e-05
3.18384e-06
7.33137e-06
1.82409e-05
2.56511e-05
-6.7884e-05
-4.7147e-06
3.49293e-05
-5.05326e-05
1.07952e-05
-1.50145e-05
-1.63045e-05
-2.95395e-05
9.53889e-05
2.63901e-05
-1.76691e-05
-2.15019e-05
-1.27982e-05
8.03289e-06
-1.3581e-05
2.63909e-05
-7.18574e-06
-1.90847e-05
2.17282e-05
5.39325e-05
-9.03441e-05
5.7904e-05
-1.44779e-05
-1.46058e-05
-3.83225e-05
-4.54388e-05
2.61624e-05
5.74819e-05
2.07163e-05
1.80576e-05
2.61948e-05
-7.22124e-06
-2.65979e-05
2.38698e-05
-3.81796e-05
-3.29978e-05
2.86615e-05
4.19561e-06
5.34137e-05
-1.29021e-05
-4.54602e-06
9.10494e-05
1.63318e-05
1.69136e-05
-4.63267e-05
3.55736e-05
-3.91712e-05
2.29464e-05
1.72218e-05
3.0864e-06
6.8058e-05
6.72807e-05
-1.70234e-05
-7.54767e-06
4.5586e-05
-1.23871e-05
-6.61239e-06
0.000122596
3.26274e-05
1.82122e-05
2.49487e-05
-5.22536e-05
-2.22393e-05
-5.70164e-05
1.30513e-06
7.6904e-06
2.41781e-05
1.07714e-05
-5.20676e-05
1.76706e-05
6.44932e-05
-6.11891e-05
5.44068e-05
-4.49324e-05
-7.052e-05
6.23125e-06
3.27923e-05
4.70874e-05
1.32737e-06
1.32957e-05
-7.78604e-05
-2.81826e-05
-6.89249e-06
0.000112601
3.6848e-05
-3.34255e-05
4.8562e-05
3.18346e-05
1.1489e-05
6.94903e-05
0.000133271
-7.38595e-05
-4.20368e-05
-1.68971e-05
2.04107e-05
8.13289e-06
-1.95552e-05
3.47554e-05
5.0591e-05
-6.30394e-05
-4.22692e-05
1.79617e-05
5.7034e-05
-6.66943e-07
2.83984e-05
-3.478e-05
-8.23154e-05
-3.16937e-05
-5.51022e-05
-1.69475e-05
6.43992e-05
-5.57773e-05
5.25205e-05
-0.00011234
-7.1065e-05
-1.52232e-05
-1.60272e-05
-3.59304e-05
5.2832e-05
4.40278e-05
-4.7544e-06
-6.05782e-05
-2.03258e-05
1.72125e-05
2.40901e-05
-2.15e-05
-3.80278e-05
1.84212e-05
-5.22975e-05
-1.48042e-05
-9.04271e-05
-1.86136e-05
-1.40984e-05
0.000121307
-2.54703e-05
5.25203e-05
3.79472e-05
3.1194e-05
-3.85304e-05
-5.10225e-06
-4.49661e-05
2.62945e-05
1.12422e-05
-1.86061e-05
1.74437e-05
-3.76215e-05
8.71124e-06
-3.17956e-05
7.14656e-05
-7.47017e-05
0.000101808
5.19643e-05
3.18048e-05
1.94159e-05
4.63662e-05
-3.00526e-06
1.62403e-05
7.99997e-05
3.67616e-06
-1.37987e-05
-5.21094e-05
-5.62187e-05
2.68216e-05
-3.78018e-05
-4.78233e-05
2.88635e-05
-2.68995e-05
-1.16543e-05
-5.02806e-05
3.10766e-05
-2.006e-05
3.81097e-05
-8.71746e-05
-4.69048e-05
1.67196e-05
4.92432e-05
9.12871e-06
1.42562e-06
-6.69427e-05
-7.27304e-05
-1.43624e-05
-9.74466e-06
-1.56977e-05
2.67376e-05
-9.21229e-05
-5.88645e-05
-1.25885e-05
5.10605e-05
-8.97488e-05
7.86013e-05
1.30894e-05
1.51685e-05
-0.000114672
-4.19708e-05
1.06479e-05
8.84158e-05
-6.75349e-06
-6.93009e-06
1.08088e-05
-9.15193e-05
-1.49581e-05
1.07794e-05
5.18085e-05
-3.28282e-05
4.25945e-05
9.42999e-06
7.85105e-07
4.03606e-05
-3.83367e-06
2.66728e-05
-2.21868e-05
6.1118e-07
2.16416e-06
1.83093e-05
-2.01629e-05
-7.52343e-05
-8.20156e-05
-4.08831e-05
3.06882e-05
3.11447e-05
-1.76034e-05
-1.14894e-05
3.875e-05
9.27458e-06
1.17533e-05
-4.44873e-05
-5.27478e-05
-4.26525e-05
9.60721e-05
-3.9106e-05
-6.17558e-05
-4.51258e-05
4.71971e-06
-4.15787e-05
-1.7467e-06
2.57668e-05
4.81142e-05
-3.50763e-05
2.89145e-05
3.42644e-05
2.19484e-05
-2.03148e-05
-2.84293e-05
2.95846e-05
6.23255e-05
1.81488e-05
-1.77086e-05
-4.22893e-05
-3.51784e-06
6.32217e-05
3.54624e-06
7.63312e-06
-5.29503e-06
1.01696e-05
2.74989e-05
2.91363e-05
-2.60753e-05
-5.97399e-05
8.6787e-05
3.29311e-05
-1.45728e-05
-1.42364e-05
5.72898e-05
3.84252e-06
9.81885e-05
0.000121367
-2.85937e-05
2.49983e-05
7.87107e-06
-1.86719e-05
-1.70153e-05
-7.32368e-05
0.00011208
-1.25973e-05
-6.01785e-05
7.86199e-06
3.08843e-05
9.78378e-06
7.84104e-06
1.7137e-05
4.81959e-08
-2.6723e-05
-2.56817e-05
-4.13363e-05
-4.5584e-05
-1.76239e-05
-7.76583e-06
-4.82695e-05
7.13975e-05
1.6424e-05
3.01725e-05
-3.19607e-05
1.39847e-05
-1.394e-05
-1.55892e-05
4.47733e-06
-1.65862e-05
8.27652e-05
5.56021e-05
5.67234e-06
3.54118e-05
2.86161e-06
-1.63054e-05
2.07499e-05
9.6329e-06
-1.45015e-05
-4.88876e-05
-4.0749e-05
-9.69192e-06
4.12585e-05
-2.15804e-05
-3.41532e-05
5.64969e-05
-1.37315e-05
-5.04199e-05
3.84741e-05
-2.33625e-05
-1.19605e-06
-5.94466e-05
5.95243e-06
6.40078e-05
-7.39722e-05
-2.23715e-05
-4.28862e-06
-7.43163e-05
-1.58094e-05
5.60062e-05
-2.41017e-05
5.20146e-05
4.5873e-05
-3.16431e-05
0.000122278
2.89966e-05
1.20703e-05
-2.74093e-05
-3.44685e-05
-3.20196e-05
5.9845e-05
4.27902e-05
-2.54272e-05
-1.6286e-05
4.25258e-05
4.55983e-05
-7.0805e-05
-4.53842e-05
-1.75915e-05
6.0014e-05
3.70807e-05
4.3698e-05
-7.64464e-06
2.17556e-05
1.48432e-05
1.47813e-05
3.49517e-05
1.44987e-05
-7.17345e-05
5.90791e-05
3.9353e-05
-1.62116e-05
4.74523e-05
-1.84559e-05
-3.84235e-05
8.46091e-05
5.78978e-05
5.29937e-05
-2.82945e-05
-1.40262e-05
-3.38175e-06
6.56871e-05
1.70164e-05
1.81664e-05
-1.45184e-05
-3.22155e-05
8.30146e-06
5.70638e-05
3.72091e-05
6.89619e-05
3.92871e-05
3.07858e-05
-1.59343e-05
4.17493e-05
8.47306e-06
-3.21828e-05
-1.07553e-05
-1.45924e-05
5.39317e-05
1.21885e-05
2.11241e-05
-2.64747e-05
1.12997e-05
-2.3908e-05
-1.44512e-05
1.09982e-05
-7.73533e-06
4.69037e-06
1.6859e-05
6.67055e-05
1.57985e-05
-0.00010758
-8.24983e-05
6.52287e-06
-5.85077e-05
5.17318e-05
1.84865e-05
1.66775e-05
-7.07678e-05
5.68549e-06
-1.86225e-05
-4.33435e-05
5.83278e-05
-4.15359e-05
-7.76734e-05
-1.33211e-05
-3.74747e-05
-1.09966e-06
5.06311e-05
3.43444e-05
5.21401e-05
2.95318e-05
4.7144e-05
-2.02372e-05
0.000134813
5.51667e-05
-3.82707e-05
-1.12214e-05
0.000111732
1.12841e-06
-1.38337e-05
-2.07323e-05
-1.05344e-05
5.75092e-06
2.51083e-05
-6.47188e-05
1.22201e-06
0.000118249
2.02321e-05
-6.96785e-05
-8.34579e-05
9.06897e-05
4.29545e-05
-6.09943e-05
-2.33634e-06
4.52483e-06
-2.48617e-05
-7.49838e-05
-6.30156e-06
3.398e-05
6.28862e-05
-2.65869e-06
-2.97539e-05
-6.67729e-05
-1.0831e-05
7.42369e-06
3.03186e-05
-1.26917e-05
1.26478e-05
-3.24746e-05
-1.54022e-05
4.65964e-05
-6.06291e-07
-7.33224e-05
-3.61172e-05
3.19344e-05
5.07121e-05
5.52048e-05
-3.86606e-05
-2.7102e-05
-1.73296e-06
4.00435e-05
-1.28825e-05
1.1524e-05
2.75392e-05
1.51002e-05
2.02359e-05
3.27822e-05
-0.000103584
-2.37203e-05
5.62989e-05
-3.56045e-05
-8.56416e-05
0.000101617
-2.90695e-05
2.15791e-05
-5.19506e-05
6.29353e-06
-5.95587e-05
3.80224e-06
-4.01147e-05
2.2179e-05
-9.73744e-06
6.35829e-05
-2.76121e-05
-2.54395e-05
9.06731e-05
-5.55888e-05
-3.51444e-05
1.47802e-05
-2.30944e-05
3.46847e-05
-4.10138e-05
-1.09323e-05
2.98406e-05
3.45651e-05
-4.78462e-05
-5.78747e-05
-3.72987e-05
3.58619e-05
-1.02362e-05
-1.76756e-05
3.83472e-05
4.55021e-06
-3.07263e-05
-6.31751e-05
6.1905e-06
-5.68884e-05
0.000120349
-0.000117728
-6.80867e-05
1.01866e-05
-1.02166e-05
2.8216e-05
-1.96024e-05
-6.25581e-06
3.50749e-05
9.93151e-06
-5.96482e-05
5.4057e-05
-2.9757e-05
-7.26199e-07
-9.39087e-06
-2.64801e-05
5.89003e-05
9.35843e-05
7.9501e-05
-1.68922e-05
-6.82934e-05
-7.77035e-05
4.75624e-05
-1.31712e-06
1.17442e-05
5.16312e-05
-6.31504e-05
2.21436e-05
3.45726e-05
-3.89621e-05
4.92733e-05
9.85351e-06
-2.73689e-05
-7.18008e-05
-2.20747e-06
9.4123e-06
5.68598e-05
-2.01399e-05
-8.623e-06
7.08981e-06
9.57632e-07
-2.91975e-05
-3.67719e-05
9.87202e-07
-7.08364e-06
-7.77075e-05
4.07125e-05
2.28039e-05
-2.33534e-05
-2.82727e-05
6.35616e-06
-3.10611e-05
-2.37779e-05
5.87655e-05
3.77758e-05
-8.88547e-05
1.88744e-05
2.82151e-05
2.42066e-05
-1.97266e-05
3.13722e-05
2.67725e-05
-2.78903e-05
-1.14413e-05
4.39798e-05
-1.84726e-05
6.29039e-06
-9.41625e-06
3.67071e-05
-1.6538e-05
-2.21907e-05
-3.26341e-05
2.11544e-05
-9.05291e-05
-2.25261e-05
7.17875e-06
-1.67816e-05
-5.12948e-05
-4.15257e-05
3.02576e-05
1.87582e-05
1.34513e-05
6.79971e-05
0.000103677
-2.68698e-05
-5.62221e-05
-7.36793e-06
-8.72975e-06
-8.22078e-06
-0.000119192
3.07668e-05
9.97082e-05
7.93549e-05
2.35228e-05
2.89571e-06
3.23557e-05
6.61984e-06
-1.27407e-05
-1.1237e-05
3.50224e-06
6.08936e-05
-6.73498e-06
5.99328e-05
-9.10857e-06
-4.93436e-05
-1.25016e-05
-1.79203e-05
3.41778e-05
-3.37979e-05
7.39563e-06
5.9454e-05
0.000102924
1.5897e-05
2.07475e-06
6.60843e-05
-5.49525e-05
-6.4221e-05
4.83647e-06
5.86046e-05
-3.53626e-05
-0.000113619
-3.21857e-05
8.25268e-06
3.03731e-05
4.0934e-06
1.25879e-05
-2.5791e-05
4.03018e-06
-1.99421e-05
-0.000115459
-8.30321e-06
2.34314e-05
1.67682e-05
-9.89996e-06
-1.77935e-05
3.4106e-05
5.38384e-05
-8.89529e-07
-3.26852e-05
-1.44822e-05
1.08391e-05
2.86297e-05
1.41965e-05
-1.13214e-05
4.36341e-05
-9.69984e-06
4.36604e-05
-6.26047e-06
-6.49597e-05
8.33402e-05
7.3741e-06
-2.33583e-05
-5.29956e-05
8.21915e-06
-7.67082e-05
-5.47343e-05
1.69993e-05
-2.35284e-05
6.93037e-05
-5.89247e-05
-1.58963e-05
-3.79665e-06
-4.36546e-05
1.75007e-06
6.90902e-06
-1.56342e-05
-1.26802e-05
-6.31332e-06
-2.8747e-05
6.35835e-05
-1.27358e-05
2.98871e-05
-1.94591e-05
0.000106661
-6.87318e-05
2.64286e-06
7.97828e-05
-7.28981e-05
-2.11633e-05
-1.8297e-06
-5.65522e-06
-3.07189e-05
-1.66241e-07
6.13098e-05
-4.53617e-05
-3.9367e-06
2.74237e-05
5.10018e-05
6.30156e-06
2.15233e-05
-5.93142e-05
-4.52381e-05
-4.56921e-05
-4.39746e-05
-2.38916e-05
-5.03433e-05
-2.24279e-05
-6.28908e-05
1.1195e-05
0.000117077
1.08837e-05
1.60316e-06
7.11577e-06
-1.24833e-05
-9.79594e-05
1.1728e-05
-2.4335e-05
-6.5287e-05
-4.57343e-05
9.77493e-05
-2.84507e-05
2.46861e-05
2.8971e-05
-3.39512e-05
9.19261e-05
-5.06383e-05
-3.13988e-05
4.17465e-07
2.26261e-05
5.23934e-05
-4.63513e-05
3.01923e-06
-7.25875e-05
3.62424e-05
4.53799e-05
5.10283e-05
4.96118e-05
1.14621e-05
6.3146e-06
1.38571e-05
1.41456e-06
1.35632e-05
-5.94303e-05
-5.26092e-05
-3.14442e-05
3.68993e-05
-1.13039e-06
4.39421e-06
1.65983e-05
1.01096e-05
-4.56744e-05
-5.67071e-05
-2.16053e-05
3.75404e-06
3.02102e-05
2.47172e-05
-3.70556e-05
-4.68158e-05
-8.03269e-05
-3.892e-05
8.4645e-05
4.35194e-05
1.98983e-05
-8.17562e-06
-6.95768e-06
-5.3876e-05
3.5844e-05
-6.18513e-05
7.90436e-05
-1.59473e-05
-3.99176e-05
-6.26175e-05
3.51216e-05
5.15349e-05
1.9701e-06
-3.47127e-06
-9.94944e-06
5.45719e-05
-4.3595e-05
-3.20023e-05
3.5851e-05
-2.33699e-05
-7.19377e-06
3.16278e-05
-2.36789e-05
4.79077e-05
6.1159e-05
-1.5018e-05
5.83356e-05
-1.60109e-05
-5.55512e-05
-4.11184e-05
3.92953e-05
8.73669e-05
-9.01776e-06
2.39068e-05
5.31235e-05
-2.1169e-06
3.75931e-05
-6.11142e-05
-5.37822e-05
4.75649e-05
-2.97427e-05
-7.41602e-05
-1.30141e-05
3.82937e-06
-4.95904e-05
-1.00625e-05
1.48056e-05
3.3672e-06
-4.77554e-05
-3.26616e-05
4.77978e-06
4.40959e-05
4.04299e-05
-4.65779e-05
-4.65794e-05
9.95409e-06
6.58084e-05
1.7775e-05
-1.7602e-05
-0.000102062
4.74702e-05
-2.01671e-05
-7.77573e-06
-8.79855e-06
4.50334e-05
-5.59189e-06
-5.70052e-05
-1.93107e-05
-3.39666e-05
4.75908e-05
2.16505e-05
-2.22087e-05
-2.47785e-05
-2.54151e-05
-5.89062e-06
-1.15663e-05
-4.13182e-05
-4.02364e-05
1.20606e-06
-4.48257e-05
2.04265e-05
3.3807e-06
-2.82913e-05
3.0164e-05
9.3485e-06
-6.71298e-05
-4.05738e-05
7.09335e-05
-3.39553e-05
-2.67515e-05
2.17735e-05
1.56353e-05
1.44391e-05
-8.90158e-06
-1.19938e-05
1.44315e-05
8.70281e-05
-9.6974e-07
1.24228e-05
-5.59278e-05
-1.92781e-05
3.90809e-05
3.06987e-06
-4.05503e-05
7.5663e-06
6.72848e-05
3.94987e-05
-7.47544e-05
-3.48646e-05
2.4689e-05
-5.16149e-05
3.7679e-06
-4.0855e-05
-1.83192e-05
8.32827e-05
-3.53506e-05
-3.56361e-05
-9.10182e-06
-2.37033e-05
-7.61581e-05
-4.31736e-05
-3.4452e-05
3.03318e-05
-5.93211e-05
-4.43424e-05
-1.38485e-05
2.80141e-05
4.43448e-05
7.11263e-06
-4.1828e-07
-3.37956e-05
5.63174e-05
4.6212e-05
-7.51618e-05
0.000106831
-4.85459e-05
-1.38164e-05
-8.40984e-07
-1.4761e-05
-6.57e-05
-1.5521e-05