# vtk DataFile Version 1.0
Ion Density - Current Sheet
ASCII
DATASET STRUCTURED_POINTS
DIMENSIONS 256 128 1
ORIGIN 0 0 0
SPACING 0.15625 0.15625 1
POINT_DATA 32768
SCALARS rhoi float
LOOKUP_TABLE default
1.90194e-18
1.92725e-18
1.91101e-18
1.93906e-18
1.91233e-18
1.9683e-18
1.92364e-18
1.89257e-18
1.95121e-18
1.95236e-18
1.97738e-18
1.92569e-18
1.94211e-18
1.86755e-18
1.89927e-18
1.92867e-18
1.91055e-18
1.89916e-18
1.92593e-18
1.93876e-18
1.87173e-18
1.93984e-18
1.93333e-18
1.88977e-18
1.94028e-18
1.92038e-18
1.93963e-18
1.95479e-18
1.9679e-18
1.95209e-18
1.9215e-18
1.87447e-18
1.89262e-18
1.88046e-18
1.94382e-18
1.9301e-18
1.92614e-18
1.84166e-18
1.9012e-18
1.91051e-18
1.95167e-18
1.97602e-18
1.92232e-18
1.93224e-18
1.9228e-18
1.94969e-18
1.89049e-18
1.93253e-18
1.93878e-18
1.91423e-18
1.93548e-18
1.93447e-18
1.9367e-18
1.93796e-18
1.91825e-18
1.89824e-18
1.89536e-18
1.88748e-18
1.88554e-18
1.90069e-18
1.92227e-18
1.88128e-18
1.98514e-18
1.88285e-18
1.96579e-18
1.99316e-18
1.93175e-18
1.932e-18
1.96467e-18
1.93559e-18
1.90476e-18
1.97074e-18
1.99707e-18
1.95643e-18
1.94147e-18
1.91946e-18
1.92413e-18
1.91108e-18
1.98771e-18
1.91214e-18
1.95373e-18
1.8971e-18
1.90929e-18
1.88694e-18
1.94311e-18
1.91954e-18
1.90525e-18
1.88431e-18
1.90633e-18
1.91098e-18
1.94412e-18
1.89955e-18
1.93655e-18
1.92757e-18
1.89392e-18
1.95946e-18
1.91382e-18
1.90336e-18
1.92659e-18
1.90861e-18
1.91843e-18
1.92841e-18
1.88035e-18
1.93408e-18
1.95962e-18
1.90681e-18
1.85801e-18
1.9161e-18
1.94446e-18
1.93489e-18
1.93365e-18
1.90371e-18
1.88738e-18
1.90609e-18
1.90291e-18
1.93558e-18
2.00734e-18
1.9162e-18
1.91819e-18
1.83963e-18
1.91475e-18
1.90101e-18
1.8804e-18
1.92393e-18
1.88013e-18
1.93038e-18
1.94948e-18
1.91169e-18
1.8651e-18
1.94869e-18
1.95568e-18
1.93906e-18
1.97012e-18
1.92334e-18
1.87641e-18
1.95002e-18
1.96807e-18
1.9704e-18
1.92647e-18
1.92345e-18
1.93479e-18
1.85031e-18
1.92568e-18
1.91577e-18
1.90358e-18
1.9538e-18
1.93109e-18
1.9067e-18
1.91622e-18
1.89014e-18
1.91953e-18
1.93226e-18
1.98522e-18
1.90643e-18
1.9021e-18
1.9431e-18
1.89694e-18
1.97953e-18
1.95047e-18
1.86848e-18
1.91761e-18
1.96315e-18
1.9247e-18
1.89303e-18
1.86867e-18
1.90984e-18
1.8879e-18
1.91449e-18
1.88641e-18
1.92561e-18
1.93917e-18
1.93152e-18
1.90222e-18
1.97627e-18
1.93272e-18
1.89934e-18
1.92975e-18
1.94192e-18
1.89848e-18
1.96484e-18
1.89605e-18
1.88562e-18
1.92883e-18
1.94045e-18
1.93867e-18
1.86475e-18
1.94032e-18
1.94673e-18
1.93674e-18
1.97282e-18
1.9063e-18
1.8458e-18
1.88448e-18
1.91558e-18
1.99719e-18
1.88203e-18
1.9724e-18
1.89068e-18
1.97392e-18
1.94821e-18
1.97439e-18
1.90448e-18
1.97032e-18
1.87632e-18
1.90676e-18
1.94481e-18
1.9641e-18
1.99994e-18
1.93792e-18
1.92617e-18
1.92315e-18
1.96623e-18
1.90923e-18
1.92042e-18
1.94554e-18
1.95763e-18
1.88626e-18
1.93952e-18
1.96638e-18
1.94197e-18
1.97769e-18
1.9445e-18
1.92288e-18
1.9753e-18
1.93329e-18
1.92352e-18
1.92819e-18
1.95706e-18
1.96871e-18
1.97342e-18
1.92181e-18
1.96498e-18
1.91193e-18
1.88931e-18
1.90934e-18
1.93258e-18
1.9626e-18
1.88753e-18
1.95949e-18
1.92742e-18
1.9463e-18
1.8942e-18
1.94576e-18
1.95187e-18
1.87594e-18
1.90572e-18
1.93297e-18
1.88657e-18
1.90165e-18
1.96561e-18
1.91657e-18
1.97432e-18
1.87952e-18
1.93438e-18
1.86783e-18
1.91509e-18
2.81229e-18
2.81007e-18
2.81175e-18
2.80316e-18
2.70459e-18
2.75384e-18
2.7845e-18
2.82027e-18
2.77027e-18
2.80289e-18
2.7804e-18
2.78974e-18
2.76268e-18
2.77505e-18
2.78659e-18
2.81265e-18
2.78816e-18
2.74482e-18
2.79018e-18
2.82222e-18
2.78461e-18
2.79931e-18
2.82508e-18
2.80143e-18
2.71683e-18
2.75057e-18
2.78085e-18
2.85878e-18
2.75143e-18
2.8031e-18
2.80203e-18
2.75751e-18
2.79854e-18
2.75335e-18
2.82727e-18
2.73866e-18
2.8714e-18
2.8068e-18
2.83072e-18
2.76488e-18
2.76483e-18
2.76681e-18
2.76763e-18
2.8295e-18
2.77326e-18
2.77537e-18
2.79524e-18
2.78599e-18
2.78198e-18
2.83365e-18
2.71055e-18
2.84349e-18
2.76881e-18
2.73062e-18
2.74223e-18
2.81229e-18
2.78687e-18
2.78395e-18
2.79812e-18
2.79014e-18
2.77363e-18
2.79837e-18
2.77563e-18
2.82174e-18
2.76272e-18
2.72936e-18
2.70815e-18
2.75949e-18
2.80919e-18
2.79929e-18
2.76219e-18
2.7472e-18
2.77201e-18
2.71421e-18
2.77686e-18
2.79381e-18
2.76396e-18
2.79032e-18
2.79977e-18
2.76826e-18
2.77883e-18
2.7665e-18
2.71875e-18
2.81669e-18
2.80999e-18
2.79795e-18
2.83266e-18
2.8064e-18
2.79881e-18
2.77898e-18
2.78967e-18
2.77253e-18
2.80622e-18
2.83152e-18
2.7859e-18
2.77664e-18
2.83703e-18
2.78028e-18
2.82961e-18
2.77912e-18
2.71549e-18
2.753e-18
2.77545e-18
2.7713e-18
2.8042e-18
2.77125e-18
2.8086e-18
2.80557e-18
2.8378e-18
2.80345e-18
2.78079e-18
2.79297e-18
2.78113e-18
2.78879e-18
2.74721e-18
2.81609e-18
2.71877e-18
2.79712e-18
2.8502e-18
2.76141e-18
2.79437e-18
2.81264e-18
2.77666e-18
2.86972e-18
2.83271e-18
2.77406e-18
2.76227e-18
2.78003e-18
2.79324e-18
2.79557e-18
2.71046e-18
2.79516e-18
2.75093e-18
2.82034e-18
2.75293e-18
2.69774e-18
2.80207e-18
2.77635e-18
2.80196e-18
2.73239e-18
2.79788e-18
2.80107e-18
2.77811e-18
2.7394e-18
2.78788e-18
2.82168e-18
2.77868e-18
2.82262e-18
2.79853e-18
2.77207e-18
2.80347e-18
2.81519e-18
2.82332e-18
2.75301e-18
2.80647e-18
2.80712e-18
2.83203e-18
2.76684e-18
2.79968e-18
2.80247e-18
2.77497e-18
2.806e-18
2.77211e-18
2.8166e-18
2.83999e-18
2.75205e-18
2.76865e-18
2.86036e-18
2.85065e-18
2.82878e-18
2.75704e-18
2.77302e-18
2.76953e-18
2.72743e-18
2.83725e-18
2.83919e-18
2.77581e-18
2.76676e-18
2.78819e-18
2.78831e-18
2.78725e-18
2.73995e-18
2.8124e-18
2.80803e-18
2.81172e-18
2.8177e-18
2.76133e-18
2.81034e-18
2.76284e-18
2.79157e-18
2.7803e-18
2.79896e-18
2.82353e-18
2.82453e-18
2.8064e-18
2.73816e-18
2.78065e-18
2.76635e-18
2.77429e-18
2.70767e-18
2.88638e-18
2.67272e-18
2.76272e-18
2.79239e-18
2.76941e-18
2.78621e-18
2.78096e-18
2.78928e-18
2.79399e-18
2.74411e-18
2.81823e-18
2.81327e-18
2.81637e-18
2.75157e-18
2.77137e-18
2.84398e-18
2.80162e-18
2.83037e-18
2.76828e-18
2.77664e-18
2.76477e-18
2.73393e-18
2.78192e-18
2.80333e-18
2.77506e-18
2.74301e-18
2.78236e-18
2.82338e-18
2.81021e-18
2.80466e-18
2.7887e-18
2.79341e-18
2.78583e-18
2.76711e-18
2.78393e-18
2.77243e-18
2.82453e-18
2.79226e-18
2.78883e-18
2.77552e-18
2.81437e-18
2.74974e-18
2.74721e-18
2.79039e-18
2.7962e-18
2.81513e-18
2.79463e-18
2.82581e-18
2.80502e-18
2.73528e-18
2.79715e-18
2.83159e-18
2.79071e-18
2.78792e-18
2.7841e-18
2.76504e-18
5.2487e-18
5.2167e-18
5.16863e-18
5.16268e-18
5.23709e-18
5.21188e-18
5.21773e-18
5.13723e-18
5.17787e-18
5.1777e-18
5.09813e-18
5.23823e-18
5.23745e-18
5.35152e-18
5.1502e-18
5.29378e-18
5.21608e-18
5.16282e-18
5.272e-18
5.20006e-18
5.28258e-18
5.20212e-18
5.08876e-18
5.29897e-18
5.22011e-18
5.13691e-18
5.2707e-18
5.27577e-18
5.10107e-18
5.14122e-18
5.12146e-18
5.12133e-18
5.17343e-18
5.13053e-18
5.27804e-18
5.08705e-18
5.09951e-18
5.15681e-18
5.20482e-18
5.11635e-18
5.14487e-18
5.11514e-18
5.07226e-18
5.14524e-18
5.12706e-18
5.30335e-18
5.29888e-18
5.18923e-18
5.11465e-18
5.13997e-18
5.14975e-18
5.21339e-18
5.26826e-18
5.10366e-18
5.2525e-18
5.283e-18
5.10591e-18
5.18968e-18
5.27169e-18
5.26937e-18
5.1607e-18
5.26227e-18
5.13039e-18
5.29502e-18
5.14441e-18
5.24074e-18
5.10904e-18
5.22538e-18
5.1771e-18
5.14625e-18
5.26634e-18
5.16689e-18
5.16761e-18
5.19393e-18
5.21319e-18
5.27507e-18
5.14639e-18
5.16307e-18
5.1253e-18
5.31713e-18
5.2464e-18
5.16465e-18
5.28497e-18
5.25479e-18
5.16581e-18
5.10889e-18
5.19934e-18
5.12932e-18
5.12998e-18
5.22297e-18
5.06758e-18
5.14134e-18
5.35414e-18
5.17911e-18
5.24693e-18
5.17421e-18
5.23084e-18
5.08576e-18
5.14946e-18
5.13256e-18
5.16045e-18
5.22642e-18
5.30037e-18
5.11148e-18
5.27857e-18
5.23944e-18
5.13993e-18
5.26631e-18
5.24368e-18
5.03341e-18
5.16744e-18
5.26118e-18
5.24795e-18
5.26409e-18
5.07086e-18
5.3157e-18
5.10487e-18
5.24161e-18
5.14846e-18
5.05724e-18
5.25151e-18
5.09894e-18
5.1087e-18
5.20939e-18
5.19441e-18
5.25186e-18
5.11233e-18
5.20409e-18
5.26326e-18
5.20205e-18
5.21136e-18
5.28953e-18
5.25533e-18
5.16005e-18
5.36959e-18
5.17472e-18
5.13231e-18
5.17468e-18
5.19767e-18
5.24864e-18
5.18809e-18
5.22986e-18
5.3543e-18
5.22746e-18
5.06914e-18
5.24232e-18
5.16445e-18
5.04026e-18
5.26437e-18
5.20473e-18
5.17104e-18
5.09274e-18
5.14825e-18
5.14396e-18
5.25031e-18
5.19812e-18
5.15279e-18
5.21284e-18
5.22929e-18
5.19835e-18
5.08074e-18
5.20464e-18
5.22444e-18
5.16565e-18
5.13712e-18
5.17252e-18
5.13261e-18
5.193e-18
5.21103e-18
5.09901e-18
5.09494e-18
5.2489e-18
5.17864e-18
5.03299e-18
5.21677e-18
5.23905e-18
5.10888e-18
5.13653e-18
5.26804e-18
5.1366e-18
5.20373e-18
5.2822e-18
5.2179e-18
5.11193e-18
5.09752e-18
5.16131e-18
5.2241e-18
5.26917e-18
5.07179e-18
5.20579e-18
5.0729e-18
5.13659e-18
5.22103e-18
5.1621e-18
5.11491e-18
5.20361e-18
5.14468e-18
5.0909e-18
5.23502e-18
5.13839e-18
5.07035e-18
5.2186e-18
5.25367e-18
5.30654e-18
5.275e-18
5.28161e-18
5.10425e-18
5.07495e-18
5.14405e-18
5.1248e-18
5.2654e-18
5.16143e-18
5.28086e-18
5.26802e-18
5.25867e-18
5.188e-18
5.1334e-18
5.19689e-18
5.22469e-18
5.20679e-18
5.25085e-18
5.23887e-18
5.35808e-18
5.06749e-18
5.30847e-18
5.24446e-18
5.17342e-18
5.13933e-18
5.19165e-18
5.1973e-18
5.19473e-18
5.18998e-18
5.15076e-18
5.3358e-18
5.17576e-18
5.13549e-18
5.27802e-18
5.13451e-18
5.29692e-18
5.25004e-18
5.21596e-18
5.06772e-18
5.142e-18
5.0599e-18
5.25137e-18
5.29591e-18
5.17584e-18
5.13823e-18
5.17972e-18
5.13822e-18
5.18434e-18
5.21464e-18
5.21229e-18
5.26233e-18
5.21722e-18
5.13184e-18
9.59295e-18
9.71746e-18
9.64206e-18
9.77482e-18
9.56458e-18
9.80192e-18
9.58134e-18
9.85809e-18
9.55717e-18
9.65247e-18
9.86511e-18
9.79454e-18
9.61114e-18
9.62863e-18
9.6058e-18
9.66047e-18
9.62435e-18
9.54138e-18
9.66338e-18
9.69145e-18
9.88868e-18
9.88343e-18
9.62507e-18
9.85477e-18
9.79487e-18
9.54574e-18
9.56212e-18
9.55084e-18
9.75427e-18
9.92157e-18
9.81654e-18
9.68927e-18
9.59365e-18
9.91441e-18
9.59903e-18
9.86387e-18
9.61707e-18
9.79375e-18
9.7399e-18
9.72965e-18
9.96171e-18
9.58192e-18
9.58299e-18
9.86633e-18
9.67307e-18
9.63762e-18
9.71466e-18
9.51832e-18
9.53909e-18
9.44127e-18
9.74166e-18
9.60774e-18
9.61882e-18
9.56805e-18
9.70261e-18
9.75229e-18
9.82621e-18
9.77772e-18
9.81715e-18
9.66463e-18
9.93641e-18
9.64768e-18
9.70483e-18
9.67276e-18
9.69756e-18
9.69202e-18
9.78555e-18
9.69992e-18
9.45493e-18
9.74211e-18
9.73297e-18
9.69451e-18
9.6924e-18
1.0139e-17
9.5964e-18
9.5747e-18
9.60962e-18
1.00989e-17
9.46781e-18
9.78126e-18
9.69136e-18
9.76811e-18
9.75216e-18
9.7303e-18
9.70054e-18
9.73318e-18
9.81379e-18
9.66542e-18
1.00158e-17
9.82861e-18
9.79006e-18
9.51434e-18
9.72643e-18
9.54898e-18
9.53436e-18
9.80315e-18
9.68639e-18
9.55455e-18
9.73605e-18
9.81668e-18
9.86415e-18
9.60936e-18
9.67841e-18
9.74342e-18
9.69471e-18
9.57103e-18
9.58248e-18
9.62471e-18
9.66832e-18
9.69386e-18
9.74857e-18
9.77332e-18
9.8483e-18
9.82764e-18
9.82858e-18
9.75975e-18
9.79802e-18
9.79568e-18
9.86928e-18
9.85862e-18
9.68914e-18
9.55389e-18
9.80768e-18
9.49246e-18
9.81451e-18
9.8716e-18
9.52709e-18
9.72058e-18
9.62371e-18
9.86772e-18
9.43302e-18
9.59356e-18
9.67859e-18
9.64575e-18
9.60234e-18
9.60525e-18
9.85584e-18
9.61664e-18
9.67712e-18
9.76619e-18
9.92133e-18
9.56922e-18
9.55678e-18
9.34367e-18
9.89982e-18
9.8431e-18
9.68565e-18
9.74692e-18
9.8369e-18
9.71024e-18
9.70729e-18
9.97682e-18
9.69451e-18
9.82144e-18
9.67336e-18
9.77358e-18
9.74245e-18
9.82177e-18
9.86341e-18
9.8825e-18
9.74217e-18
9.89429e-18
9.50046e-18
9.69366e-18
9.79425e-18
9.64894e-18
9.77401e-18
9.70218e-18
9.76318e-18
9.53359e-18
9.56071e-18
9.84149e-18
9.87885e-18
9.67525e-18
9.71547e-18
9.75143e-18
9.64826e-18
9.81436e-18
9.40613e-18
9.85575e-18
9.75708e-18
9.6704e-18
9.53172e-18
9.69641e-18
9.64441e-18
9.56469e-18
9.76498e-18
9.60307e-18
9.69585e-18
9.67959e-18
9.9516e-18
9.86898e-18
9.8948e-18
9.59384e-18
9.77391e-18
9.63665e-18
9.68996e-18
9.58582e-18
9.90545e-18
9.74361e-18
9.78183e-18
9.75361e-18
9.77478e-18
9.7102e-18
9.75658e-18
9.89172e-18
9.74746e-18
9.5385e-18
1.01028e-17
9.72039e-18
9.78596e-18
9.69319e-18
9.65307e-18
9.63952e-18
9.487e-18
9.75721e-18
9.79714e-18
9.77884e-18
9.7192e-18
9.71519e-18
9.57012e-18
9.68664e-18
9.60337e-18
9.83803e-18
9.45262e-18
9.78638e-18
9.4886e-18
9.90149e-18
9.74589e-18
9.43758e-18
9.80396e-18
9.5086e-18
9.85238e-18
9.35581e-18
9.69219e-18
9.83975e-18
9.50757e-18
9.83735e-18
9.50852e-18
9.35024e-18
9.67025e-18
9.64907e-18
9.64366e-18
9.89199e-18
9.64739e-18
9.40332e-18
9.92181e-18
9.7886e-18
9.58608e-18
9.42813e-18
9.58211e-18
9.6381e-18
9.72168e-18
9.78871e-18
9.65588e-18
9.6171e-18
1.80964e-17
1.80052e-17
1.79635e-17
1.85062e-17
1.85418e-17
1.78066e-17
1.84392e-17
1.8081e-17
1.80723e-17
1.80005e-17
1.8247e-17
1.79001e-17
1.80508e-17
1.78695e-17
1.76851e-17
1.85043e-17
1.84064e-17
1.8043e-17
1.7755e-17
1.80507e-17
1.80552e-17
1.77375e-17
1.84171e-17
1.84068e-17
1.80303e-17
1.8277e-17
1.80166e-17
1.83856e-17
1.81079e-17
1.77772e-17
1.84656e-17
1.83341e-17
1.77026e-17
1.83391e-17
1.81948e-17
1.78368e-17
1.82977e-17
1.8111e-17
1.76953e-17
1.85523e-17
1.82558e-17
1.77958e-17
1.78651e-17
1.82954e-17
1.81763e-17
1.80165e-17
1.82052e-17
1.83083e-17
1.82597e-17
1.83978e-17
1.83195e-17
1.74792e-17
1.81604e-17
1.82797e-17
1.80418e-17
1.78611e-17
1.81445e-17
1.76899e-17
1.78213e-17
1.79558e-17
1.80785e-17
1.81549e-17
1.81575e-17
1.83604e-17
1.80178e-17
1.81257e-17
1.86038e-17
1.83515e-17
1.80498e-17
1.82728e-17
1.78563e-17
1.84792e-17
1.81931e-17
1.82462e-17
1.79997e-17
1.84796e-17
1.8129e-17
1.83745e-17
1.82256e-17
1.80294e-17
1.7962e-17
1.83906e-17
1.8016e-17
1.81333e-17
1.84403e-17
1.79237e-17
1.82193e-17
1.8398e-17
1.78004e-17
1.84603e-17
1.79613e-17
1.81644e-17
1.85202e-17
1.80452e-17
1.77533e-17
1.85399e-17
1.83799e-17
1.77813e-17
1.84515e-17
1.78876e-17
1.80703e-17
1.81789e-17
1.81663e-17
1.81149e-17
1.80751e-17
1.82865e-17
1.79101e-17
1.83979e-17
1.81481e-17
1.81223e-17
1.77939e-17
1.83175e-17
1.811e-17
1.80049e-17
1.81601e-17
1.78736e-17
1.8217e-17
1.80431e-17
1.85078e-17
1.82049e-17
1.83802e-17
1.80309e-17
1.79392e-17
1.79684e-17
1.8172e-17
1.8183e-17
1.80645e-17
1.84225e-17
1.79253e-17
1.79444e-17
1.81397e-17
1.84308e-17
1.78167e-17
1.78556e-17
1.82115e-17
1.81116e-17
1.77736e-17
1.80023e-17
1.8115e-17
1.80379e-17
1.81406e-17
1.77159e-17
1.86295e-17
1.84742e-17
1.81966e-17
1.78371e-17
1.80535e-17
1.83493e-17
1.81966e-17
1.77709e-17
1.79195e-17
1.82799e-17
1.84249e-17
1.8323e-17
1.79165e-17
1.83292e-17
1.75965e-17
1.8416e-17
1.82014e-17
1.81824e-17
1.8035e-17
1.83492e-17
1.82636e-17
1.80117e-17
1.82548e-17
1.77288e-17
1.77252e-17
1.83756e-17
1.81915e-17
1.85441e-17
1.79399e-17
1.79524e-17
1.83277e-17
1.78628e-17
1.79641e-17
1.82073e-17
1.82768e-17
1.80232e-17
1.84347e-17
1.80373e-17
1.83281e-17
1.80453e-17
1.7924e-17
1.76956e-17
1.83077e-17
1.81416e-17
1.77759e-17
1.83789e-17
1.81282e-17
1.817e-17
1.81616e-17
1.80193e-17
1.79883e-17
1.81815e-17
1.79665e-17
1.80065e-17
1.83029e-17
1.77848e-17
1.82141e-17
1.82488e-17
1.82867e-17
1.81694e-17
1.80656e-17
1.82773e-17
1.78752e-17
1.85154e-17
1.78567e-17
1.83729e-17
1.75735e-17
1.8148e-17
1.85343e-17
1.76684e-17
1.86382e-17
1.78608e-17
1.83002e-17
1.81546e-17
1.83242e-17
1.81499e-17
1.79708e-17
1.79688e-17
1.85357e-17
1.8168e-17
1.779e-17
1.81417e-17
1.81736e-17
1.7819e-17
1.83466e-17
1.82547e-17
1.78953e-17
1.80212e-17
1.78499e-17
1.85435e-17
1.82619e-17
1.8022e-17
1.81673e-17
1.81335e-17
1.82097e-17
1.83395e-17
1.84405e-17
1.7852e-17
1.83245e-17
1.81579e-17
1.82136e-17
1.80469e-17
1.80091e-17
1.82636e-17
1.8223e-17
1.85558e-17
1.76063e-17
1.83836e-17
1.84337e-17
1.85634e-17
1.80926e-17
1.79974e-17
1.81739e-17
1.8387e-17
3.39642e-17
3.41737e-17
3.32559e-17
3.39667e-17
3.41293e-17
3.31826e-17
3.41028e-17
3.30094e-17
3.36679e-17
3.43004e-17
3.41244e-17
3.31291e-17
3.40711e-17
3.39852e-17
3.3379e-17
3.36908e-17
3.3771e-17
3.39169e-17
3.43005e-17
3.36662e-17
3.32867e-17
3.37116e-17
3.39824e-17
3.44293e-17
3.36258e-17
3.41909e-17
3.33291e-17
3.34498e-17
3.37943e-17
3.39501e-17
3.39944e-17
3.41528e-17
3.34548e-17
3.38527e-17
3.42229e-17
3.3955e-17
3.38463e-17
3.39484e-17
3.41095e-17
3.42709e-17
3.34585e-17
3.47845e-17
3.40154e-17
3.38298e-17
3.41952e-17
3.39713e-17
3.40377e-17
3.32308e-17
3.37127e-17
3.46915e-17
3.38211e-17
3.33698e-17
3.45698e-17
3.42313e-17
3.41923e-17
3.24252e-17
3.43127e-17
3.34886e-17
3.40358e-17
3.34425e-17
3.36299e-17
3.3546e-17
3.31953e-17
3.35406e-17
3.3576e-17
3.41004e-17
3.48007e-17
3.46911e-17
3.41505e-17
3.42218e-17
3.34477e-17
3.39087e-17
3.34419e-17
3.43989e-17
3.33753e-17
3.38734e-17
3.41626e-17
3.35874e-17
3.39049e-17
3.36608e-17
3.40145e-17
3.31161e-17
3.38248e-17
3.41426e-17
3.39264e-17
3.4164e-17
3.33627e-17
3.41893e-17
3.31044e-17
3.3272e-17
3.40307e-17
3.39579e-17
3.2828e-17
3.44816e-17
3.38358e-17
3.43945e-17
3.37976e-17
3.37907e-17
3.38022e-17
3.28742e-17
3.46012e-17
3.40716e-17
3.35459e-17
3.41441e-17
3.36321e-17
3.42163e-17
3.43215e-17
3.34938e-17
3.40371e-17
3.41875e-17
3.43986e-17
3.39609e-17
3.43004e-17
3.35074e-17
3.42407e-17
3.33113e-17
3.43382e-17
3.39588e-17
3.45379e-17
3.4012e-17
3.40782e-17
3.35359e-17
3.46972e-17
3.37532e-17
3.42897e-17
3.397e-17
3.40632e-17
3.40929e-17
3.37588e-17
3.35686e-17
3.39923e-17
3.42965e-17
3.40267e-17
3.3901e-17
3.42682e-17
3.39935e-17
3.41293e-17
3.40189e-17
3.40888e-17
3.35888e-17
3.38651e-17
3.30759e-17
3.34405e-17
3.39353e-17
3.38944e-17
3.34482e-17
3.35436e-17
3.37431e-17
3.37074e-17
3.4395e-17
3.43735e-17
3.41294e-17
3.45558e-17
3.3985e-17
3.35542e-17
3.37066e-17
3.36615e-17
3.42005e-17
3.38411e-17
3.32349e-17
3.34967e-17
3.35222e-17
3.34327e-17
3.3736e-17
3.3314e-17
3.40764e-17
3.39071e-17
3.38146e-17
3.4148e-17
3.42434e-17
3.42892e-17
3.31933e-17
3.43246e-17
3.45286e-17
3.42673e-17
3.38493e-17
3.3488e-17
3.43958e-17
3.40811e-17
3.39429e-17
3.35233e-17
3.38417e-17
3.41906e-17
3.39806e-17
3.43734e-17
3.47869e-17
3.40269e-17
3.31589e-17
3.41935e-17
3.37057e-17
3.3762e-17
3.44704e-17
3.38895e-17
3.38946e-17
3.3701e-17
3.29678e-17
3.34582e-17
3.40342e-17
3.38282e-17
3.36859e-17
3.44077e-17
3.41166e-17
3.31767e-17
3.35701e-17
3.39423e-17
3.35346e-17
3.35288e-17
3.3872e-17
3.33729e-17
3.42742e-17
3.32715e-17
3.43525e-17
3.33964e-17
3.36518e-17
3.39331e-17
3.32597e-17
3.36193e-17
3.4378e-17
3.4362e-17
3.43437e-17
3.45195e-17
3.40836e-17
3.41939e-17
3.40549e-17
3.37562e-17
3.39863e-17
3.37033e-17
3.39194e-17
3.33251e-17
3.34468e-17
3.33945e-17
3.3698e-17
3.31181e-17
3.44517e-17
3.35784e-17
3.45715e-17
3.43582e-17
3.34176e-17
3.43144e-17
3.44398e-17
3.42876e-17
3.34416e-17
3.33319e-17
3.44106e-17
3.41401e-17
3.46133e-17
3.37414e-17
3.34297e-17
3.35797e-17
3.36285e-17
3.39943e-17
3.38253e-17
3.29516e-17
3.37331e-17
3.44274e-17
3.32852e-17
6.24995e-17
6.20886e-17
6.38005e-17
6.25748e-17
6.36972e-17
6.43793e-17
6.29451e-17
6.31544e-17
6.31509e-17
6.4031e-17
6.2955e-17
6.34302e-17
6.39647e-17
6.33737e-17
6.36376e-17
6.51655e-17
6.32414e-17
6.34317e-17
6.27485e-17
6.37162e-17
6.25409e-17
6.22571e-17
6.28999e-17
6.42892e-17
6.49196e-17
6.38078e-17
6.33595e-17
6.40369e-17
6.24132e-17
6.24314e-17
6.08202e-17
6.29631e-17
6.41798e-17
6.23456e-17
6.43764e-17
6.24042e-17
6.37305e-17
6.26445e-17
6.35703e-17
6.38354e-17
6.18258e-17
6.25519e-17
6.33107e-17
6.29705e-17
6.22353e-17
6.27781e-17
6.32535e-17
6.29937e-17
6.44626e-17
6.30406e-17
6.23496e-17
6.37334e-17
6.34676e-17
6.30561e-17
6.44009e-17
6.44468e-17
6.35715e-17
6.38716e-17
6.43453e-17
6.18108e-17
6.30143e-17
6.38084e-17
6.40783e-17
6.38384e-17
6.5308e-17
6.19866e-17
6.1449e-17
6.31313e-17
6.40643e-17
6.2624e-17
6.39531e-17
6.3915e-17
6.37064e-17
6.35309e-17
6.38553e-17
6.38268e-17
6.33692e-17
6.19242e-17
6.34829e-17
6.35454e-17
6.30747e-17
6.36986e-17
6.42697e-17
6.45178e-17
6.38084e-17
6.27589e-17
6.26235e-17
6.3034e-17
6.42993e-17
6.28662e-17
6.31536e-17
6.46686e-17
6.24512e-17
6.4057e-17
6.16817e-17
6.23762e-17
6.38729e-17
6.28715e-17
6.30487e-17
6.38205e-17
6.35011e-17
6.45461e-17
6.40191e-17
6.22155e-17
6.30296e-17
6.33177e-17
6.22672e-17
6.30234e-17
6.40758e-17
6.29694e-17
6.26768e-17
6.23991e-17
6.24688e-17
6.15471e-17
6.28547e-17
6.14063e-17
6.44498e-17
6.00455e-17
6.3681e-17
6.20586e-17
6.31635e-17
6.34136e-17
6.33224e-17
6.44158e-17
6.24652e-17
6.12861e-17
6.36969e-17
6.32431e-17
6.31472e-17
6.30715e-17
6.36507e-17
6.24656e-17
6.22331e-17
6.34734e-17
6.33005e-17
6.37196e-17
6.19335e-17
6.3437e-17
6.45212e-17
6.28104e-17
6.27461e-17
6.32639e-17
6.35695e-17
6.30549e-17
6.2424e-17
6.37127e-17
6.27609e-17
6.34795e-17
6.30053e-17
6.34783e-17
6.29454e-17
6.3839e-17
6.25342e-17
6.22466e-17
6.3726e-17
6.42294e-17
6.17865e-17
6.36769e-17
6.37965e-17
6.38764e-17
6.33175e-17
6.34235e-17
6.29409e-17
6.43016e-17
6.3326e-17
6.42569e-17
6.27242e-17
6.31184e-17
6.31704e-17
6.3567e-17
6.34932e-17
6.37662e-17
6.2853e-17
6.36618e-17
6.22547e-17
6.38535e-17
6.24795e-17
6.28997e-17
6.26648e-17
6.18635e-17
6.49909e-17
6.30541e-17
6.31035e-17
6.28363e-17
6.35148e-17
6.35141e-17
6.3231e-17
6.47754e-17
6.24526e-17
6.31305e-17
6.33906e-17
6.53389e-17
6.24752e-17
6.14202e-17
6.47277e-17
6.53136e-17
6.2019e-17
6.41909e-17
6.29152e-17
6.29178e-17
6.35435e-17
6.38182e-17
6.30135e-17
6.42391e-17
6.42867e-17
6.18243e-17
6.28884e-17
6.38788e-17
6.49372e-17
6.30658e-17
6.38144e-17
6.3483e-17
6.35663e-17
6.30781e-17
6.35656e-17
6.34161e-17
6.42689e-17
6.37757e-17
6.33625e-17
6.45369e-17
6.37624e-17
6.37472e-17
6.12221e-17
6.33105e-17
6.36538e-17
6.23431e-17
6.40754e-17
6.38971e-17
6.39389e-17
6.37996e-17
6.40465e-17
6.24225e-17
6.34971e-17
6.36037e-17
6.38083e-17
6.15225e-17
6.34122e-17
6.31667e-17
6.3617e-17
6.34131e-17
6.26477e-17
6.3459e-17
6.29975e-17
6.38964e-17
6.2603e-17
6.34302e-17
6.30435e-17
6.37049e-17
6.34859e-17
6.439e-17
6.12218e-17
6.27273e-17
6.418e-17
6.27898e-17
6.41776e-17
6.36346e-17
1.21411e-16
1.16052e-16
1.19418e-16
1.18562e-16
1.18712e-16
1.17378e-16
1.19091e-16
1.18975e-16
1.20763e-16
1.17335e-16
1.17671e-16
1.19593e-16
1.17789e-16
1.18632e-16
1.18634e-16
1.17008e-16
1.20134e-16
1.1635e-16
1.17846e-16
1.19383e-16
1.16375e-16
1.20138e-16
1.16866e-16
1.17442e-16
1.15318e-16
1.18121e-16
1.16236e-16
1.20678e-16
1.18424e-16
1.20864e-16
1.19542e-16
1.18891e-16
1.19488e-16
1.14182e-16
1.19313e-16
1.18403e-16
1.19057e-16
1.18397e-16
1.1973e-16
1.16155e-16
1.19143e-16
1.20504e-16
1.18681e-16
1.22054e-16
1.16326e-16
1.17715e-16
1.18074e-16
1.18039e-16
1.17625e-16
1.19078e-16
1.16825e-16
1.1934e-16
1.18567e-16
1.18199e-16
1.17741e-16
1.18489e-16
1.17721e-16
1.20066e-16
1.19769e-16
1.17164e-16
1.15003e-16
1.18694e-16
1.2052e-16
1.19494e-16
1.17236e-16
1.16937e-16
1.19871e-16
1.13194e-16
1.14343e-16
1.18211e-16
1.155e-16
1.16349e-16
1.1894e-16
1.17474e-16
1.18247e-16
1.18031e-16
1.16887e-16
1.18249e-16
1.16669e-16
1.15921e-16
1.17852e-16
1.19583e-16
1.19896e-16
1.18268e-16
1.15624e-16
1.17341e-16
1.19181e-16
1.17933e-16
1.20184e-16
1.19057e-16
1.1993e-16
1.15506e-16
1.16842e-16
1.1847e-16
1.17892e-16
1.17833e-16
1.17481e-16
1.20072e-16
1.17256e-16
1.19095e-16
1.17755e-16
1.1391e-16
1.21348e-16
1.17626e-16
1.21044e-16
1.16647e-16
1.19676e-16
1.17363e-16
1.16208e-16
1.18917e-16
1.19025e-16
1.20009e-16
1.19317e-16
1.19032e-16
1.17411e-16
1.20125e-16
1.21182e-16
1.19175e-16
1.20462e-16
1.19947e-16
1.20145e-16
1.15829e-16
1.17351e-16
1.15256e-16
1.19337e-16
1.17625e-16
1.17861e-16
1.16938e-16
1.1857e-16
1.15243e-16
1.18581e-16
1.18882e-16
1.18084e-16
1.19485e-16
1.18187e-16
1.20751e-16
1.19573e-16
1.21225e-16
1.15569e-16
1.17636e-16
1.19753e-16
1.21162e-16
1.16715e-16
1.16528e-16
1.18594e-16
1.19017e-16
1.15318e-16
1.18406e-16
1.19499e-16
1.18303e-16
1.17756e-16
1.21352e-16
1.17561e-16
1.2009e-16
1.19181e-16
1.20538e-16
1.18406e-16
1.18862e-16
1.18321e-16
1.17326e-16
1.1743e-16
1.17806e-16
1.15728e-16
1.18437e-16
1.21608e-16
1.18755e-16
1.19055e-16
1.18262e-16
1.16645e-16
1.19657e-16
1.19003e-16
1.19616e-16
1.16995e-16
1.19305e-16
1.20365e-16
1.18852e-16
1.16509e-16
1.16984e-16
1.19546e-16
1.19464e-16
1.15041e-16
1.18993e-16
1.18045e-16
1.16532e-16
1.18422e-16
1.19394e-16
1.16367e-16
1.19005e-16
1.16659e-16
1.20458e-16
1.18445e-16
1.16536e-16
1.17995e-16
1.16971e-16
1.19862e-16
1.1674e-16
1.16901e-16
1.17736e-16
1.20791e-16
1.20743e-16
1.1605e-16
1.19445e-16
1.17258e-16
1.18764e-16
1.18307e-16
1.16645e-16
1.20235e-16
1.18626e-16
1.1422e-16
1.16407e-16
1.19407e-16
1.15626e-16
1.18e-16
1.21729e-16
1.15623e-16
1.18077e-16
1.14156e-16
1.17525e-16
1.18789e-16
1.16462e-16
1.15248e-16
1.17597e-16
1.18302e-16
1.16594e-16
1.18225e-16
1.18506e-16
1.20007e-16
1.17995e-16
1.19138e-16
1.17468e-16
1.18452e-16
1.21057e-16
1.18528e-16
1.17751e-16
1.19232e-16
1.22102e-16
1.17096e-16
1.14234e-16
1.16799e-16
1.19877e-16
1.17148e-16
1.15833e-16
1.18698e-16
1.18973e-16
1.20356e-16
1.20293e-16
1.19696e-16
1.17942e-16
1.18301e-16
1.17731e-16
1.17136e-16
1.16057e-16
1.18221e-16
1.19583e-16
1.17497e-16
1.19506e-16
2.20015e-16
2.19939e-16
2.21727e-16
2.24367e-16
2.19721e-16
2.2652e-16
2.21287e-16
2.2225e-16
2.23099e-16
2.18416e-16
2.24469e-16
2.21227e-16
2.18255e-16
2.20458e-16
2.18013e-16
2.22498e-16
2.21066e-16
2.25986e-16
2.22815e-16
2.2555e-16
2.20044e-16
2.24228e-16
2.20148e-16
2.21799e-16
2.18584e-16
2.20018e-16
2.21351e-16
2.17503e-16
2.18671e-16
2.22906e-16
2.19905e-16
2.20684e-16
2.19858e-16
2.18995e-16
2.24127e-16
2.1863e-16
2.17386e-16
2.20356e-16
2.25579e-16
2.21399e-16
2.2368e-16
2.12438e-16
2.18091e-16
2.19772e-16
2.20376e-16
2.27253e-16
2.21519e-16
2.2195e-16
2.22114e-16
2.17125e-16
2.2429e-16
2.23381e-16
2.19608e-16
2.25567e-16
2.19407e-16
2.21422e-16
2.1598e-16
2.20721e-16
2.19076e-16
2.24507e-16
2.22393e-16
2.19073e-16
2.22244e-16
2.24401e-16
2.23302e-16
2.1893e-16
2.22037e-16
2.24637e-16
2.18381e-16
2.22025e-16
2.19443e-16
2.22212e-16
2.22888e-16
2.18049e-16
2.21578e-16
2.17858e-16
2.19685e-16
2.22703e-16
2.23439e-16
2.24763e-16
2.21633e-16
2.2231e-16
2.22693e-16
2.16597e-16
2.18669e-16
2.22786e-16
2.19341e-16
2.17661e-16
2.21204e-16
2.18217e-16
2.15755e-16
2.18054e-16
2.18998e-16
2.21492e-16
2.19976e-16
2.18144e-16
2.20421e-16
2.21093e-16
2.20967e-16
2.189e-16
2.28945e-16
2.19403e-16
2.21284e-16
2.25382e-16
2.19423e-16
2.17259e-16
2.241e-16
2.18634e-16
2.22136e-16
2.20217e-16
2.17785e-16
2.16646e-16
2.24477e-16
2.17382e-16
2.23664e-16
2.18562e-16
2.19059e-16
2.18913e-16
2.20668e-16
2.21343e-16
2.25104e-16
2.2121e-16
2.25191e-16
2.18144e-16
2.24717e-16
2.16802e-16
2.22871e-16
2.21683e-16
2.19279e-16
2.20167e-16
2.24438e-16
2.19663e-16
2.27265e-16
2.17949e-16
2.19061e-16
2.20034e-16
2.21618e-16
2.26883e-16
2.21787e-16
2.2197e-16
2.19393e-16
2.25136e-16
2.19643e-16
2.18925e-16
2.21632e-16
2.19987e-16
2.20501e-16
2.23518e-16
2.27512e-16
2.15923e-16
2.18687e-16
2.19448e-16
2.16054e-16
2.1975e-16
2.18791e-16
2.15722e-16
2.21961e-16
2.18356e-16
2.2215e-16
2.17389e-16
2.17905e-16
2.24275e-16
2.23028e-16
2.24801e-16
2.18829e-16
2.17187e-16
2.21492e-16
2.15647e-16
2.21777e-16
2.20676e-16
2.1801e-16
2.21076e-16
2.16558e-16
2.15286e-16
2.1828e-16
2.23827e-16
2.15513e-16
2.2399e-16
2.2281e-16
2.20538e-16
2.225e-16
2.21473e-16
2.19288e-16
2.23026e-16
2.18647e-16
2.22614e-16
2.21065e-16
2.22468e-16
2.19452e-16
2.1878e-16
2.20753e-16
2.24823e-16
2.27569e-16
2.17159e-16
2.23464e-16
2.25595e-16
2.2228e-16
2.2499e-16
2.21103e-16
2.18874e-16
2.20158e-16
2.18049e-16
2.2506e-16
2.21594e-16
2.14237e-16
2.19474e-16
2.21833e-16
2.24044e-16
2.18069e-16
2.20553e-16
2.20538e-16
2.21803e-16
2.22209e-16
2.24694e-16
2.26516e-16
2.14969e-16
2.21796e-16
2.16821e-16
2.19025e-16
2.19349e-16
2.24593e-16
2.23615e-16
2.15269e-16
2.18406e-16
2.21687e-16
2.21201e-16
2.24931e-16
2.19368e-16
2.23151e-16
2.20226e-16
2.18895e-16
2.16381e-16
2.17627e-16
2.22634e-16
2.1777e-16
2.21164e-16
2.18764e-16
2.18548e-16
2.19542e-16
2.21827e-16
2.24283e-16
2.22369e-16
2.21462e-16
2.19151e-16
2.14415e-16
2.19192e-16
2.21625e-16
2.19532e-16
2.21352e-16
2.13246e-16
2.25444e-16
2.18805e-16
2.21979e-16
2.19509e-16
2.23309e-16
2.19234e-16
4.08243e-16
4.21335e-16
4.14442e-16
4.12288e-16
4.13595e-16
4.18173e-16
4.16652e-16
4.04435e-16
4.16648e-16
4.04502e-16
4.18629e-16
4.19838e-16
4.12172e-16
4.18043e-16
4.16132e-16
4.05025e-16
4.13156e-16
4.14294e-16
4.09458e-16
4.02415e-16
4.22098e-16
4.04905e-16
4.12955e-16
4.15185e-16
4.11317e-16
4.18227e-16
4.14051e-16
4.03941e-16
4.12624e-16
4.14978e-16
4.13649e-16
4.12666e-16
4.14125e-16
4.16494e-16
4.11254e-16
4.15268e-16
4.16679e-16
4.1165e-16
4.18532e-16
4.06332e-16
4.13273e-16
4.11106e-16
4.11553e-16
4.29406e-16
4.21981e-16
4.09163e-16
4.05471e-16
4.15814e-16
4.09689e-16
4.11467e-16
4.19258e-16
4.17608e-16
4.04652e-16
4.0479e-16
4.12546e-16
4.16322e-16
4.16355e-16
4.1198e-16
4.13683e-16
4.22276e-16
4.04994e-16
4.14618e-16
4.20467e-16
4.08159e-16
4.22256e-16
4.17394e-16
4.12328e-16
4.07178e-16
4.18527e-16
4.0501e-16
4.11269e-16
4.0765e-16
4.12171e-16
4.10579e-16
4.07546e-16
4.07846e-16
4.11286e-16
4.08716e-16
4.10929e-16
4.04893e-16
4.02635e-16
4.14083e-16
4.05047e-16
4.07439e-16
4.15228e-16
4.19051e-16
4.07518e-16
4.08644e-16
4.16177e-16
4.18995e-16
4.18679e-16
4.1767e-16
4.08549e-16
4.10284e-16
4.12991e-16
4.10404e-16
3.99205e-16
4.08623e-16
4.14924e-16
4.00456e-16
4.2247e-16
4.1097e-16
4.08427e-16
4.17716e-16
4.13991e-16
4.15765e-16
4.06568e-16
4.2019e-16
3.94716e-16
4.18341e-16
4.13085e-16
4.11482e-16
4.168e-16
4.14419e-16
4.17427e-16
4.09712e-16
4.25931e-16
4.18708e-16
4.15628e-16
4.13992e-16
4.20287e-16
4.12733e-16
4.12864e-16
4.17904e-16
4.14511e-16
4.12497e-16
4.0408e-16
4.13782e-16
4.02621e-16
4.20374e-16
4.11082e-16
4.08456e-16
4.16113e-16
4.09221e-16
4.17917e-16
4.08962e-16
4.1499e-16
4.0567e-16
4.10015e-16
4.02913e-16
4.14885e-16
4.10574e-16
4.18059e-16
4.16796e-16
4.15724e-16
4.09172e-16
4.08063e-16
4.20147e-16
4.16013e-16
4.08431e-16
4.1511e-16
4.21216e-16
4.10261e-16
4.08769e-16
4.16108e-16
4.14406e-16
4.10886e-16
4.23845e-16
4.20826e-16
4.1044e-16
4.08753e-16
4.12819e-16
4.14037e-16
4.03208e-16
4.08917e-16
4.09442e-16
4.07798e-16
4.17622e-16
4.18443e-16
4.04627e-16
4.1829e-16
4.14248e-16
4.09672e-16
4.19173e-16
4.06007e-16
4.19573e-16
4.11779e-16
4.04429e-16
4.16045e-16
4.14834e-16
4.09904e-16
4.08011e-16
4.1872e-16
4.15791e-16
4.14743e-16
4.08521e-16
4.13633e-16
4.14575e-16
4.07857e-16
4.18905e-16
4.12721e-16
4.13025e-16
4.15293e-16
4.08596e-16
4.04958e-16
4.07027e-16
4.09004e-16
4.06309e-16
4.14367e-16
4.08908e-16
4.15902e-16